    3    3    1    1
  0.9681789E+01  0.3085000E-09  0.3085000E-09  0.3524000E-09  0.5000000E-15
  1.000000000000000E-004
  CAR 
 MgB2                                    
      8   9261      8
 
  0.0000000E+00  0.0000000E+00  0.0000000E+00  0.1079797E-03
    1       -7.167961   1.000000
    2        2.316401   1.000000
    3        5.602051  -0.001321
    4        5.602148  -0.001315
    5        6.916375  -0.000000
    6       11.548002   0.000000
    7       11.548111   0.000000
    8       13.319380   0.000000
 
  0.0000000E+00  0.0000000E+00  0.5000000E-01  0.1079797E-03
    1       -7.146535   1.000000
    2        2.127129   1.000000
    3        5.610559  -0.000901
    4        5.610656  -0.000897
    5        7.156245  -0.000000
    6       11.554555   0.000000
    7       11.554673   0.000000
    8       13.316566   0.000000
 
  0.0000000E+00  0.0000000E+00  0.1000000E+00  0.1079797E-03
    1       -7.082796   1.000000
    2        1.650340   1.000000
    3        5.635305  -0.000269
    4        5.635403  -0.000268
    5        7.784706  -0.000000
    6       11.575517   0.000000
    7       11.575636   0.000000
    8       13.308334   0.000000
 
  0.0000000E+00  0.0000000E+00  0.1500000E+00  0.1079797E-03
    1       -6.978636   1.000000
    2        1.036274   1.000000
    3        5.674405  -0.000030
    4        5.674504  -0.000030
    5        8.651188   0.000000
    6       11.608954   0.000000
    7       11.609074   0.000000
    8       13.295590   0.000000
 
  0.0000000E+00  0.0000000E+00  0.2000000E+00  0.1079797E-03
    1       -6.837522   1.000000
    2        0.382759   1.000000
    3        5.724682  -0.000001
    4        5.724781  -0.000001
    5        9.656549   0.000000
    6       11.652254   0.000000
    7       11.652376   0.000000
    8       13.279696   0.000000
 
  0.0000000E+00  0.0000000E+00  0.2500000E+00  0.1079797E-03
    1       -6.665319   1.000000
    2       -0.256904   1.000000
    3        5.782240  -0.000000
    4        5.782339  -0.000000
    5       10.744663   0.000000
    6       11.701840   0.000000
    7       11.701964   0.000000
    8       13.259639   0.000000
 
  0.0000000E+00  0.0000000E+00  0.3000000E+00  0.1079797E-03
    1       -6.471543   1.000000
    2       -0.849993   1.000000
    3        5.840786  -0.000000
    4        5.840886  -0.000000
    5       11.753038   0.000000
    6       11.753163   0.000000
    7       11.875164   0.000000
    8       13.241079   0.000000
 
  0.0000000E+00  0.0000000E+00  0.3500000E+00  0.1079797E-03
    1       -6.271438   1.000000
    2       -1.368660   1.000000
    3        5.895111  -0.000000
    4        5.895212  -0.000000
    5       11.800795   0.000000
    6       11.800922   0.000000
    7       13.004113   0.000000
    8       13.224388   0.000000
 
  0.0000000E+00  0.0000000E+00  0.4000000E+00  0.1079797E-03
    1       -6.088601   1.000000
    2       -1.782573   1.000000
    3        5.939425  -0.000000
    4        5.939525  -0.000000
    5       11.839841   0.000000
    6       11.839969   0.000000
    7       13.211320   0.000000
    8       14.056990   0.000000
 
  0.0000000E+00  0.0000000E+00  0.4500000E+00  0.1079797E-03
    1       -5.955212   1.000000
    2       -2.053889   1.000000
    3        5.968713  -0.000000
    4        5.968813  -0.000000
    5       11.865722   0.000000
    6       11.865851   0.000000
    7       13.203254   0.000000
    8       14.888615   0.000000
 
  0.0000000E+00  0.0000000E+00  0.5000000E+00  0.1079797E-03
    1       -5.905937   1.000000
    2       -2.150838   1.000000
    3        5.981206  -0.000000
    4        5.981280  -0.000000
    5       11.874678   0.000000
    6       11.874806   0.000000
    7       13.194724   0.000000
    8       15.066766   0.000000
 
  0.0000000E+00  0.0000000E+00  0.5500000E+00  0.1079797E-03
    1       -5.955212   1.000000
    2       -2.053889   1.000000
    3        5.968713  -0.000000
    4        5.968813  -0.000000
    5       11.865722   0.000000
    6       11.865851   0.000000
    7       13.203252   0.000000
    8       14.886494   0.000000
 
  0.0000000E+00  0.0000000E+00  0.6000000E+00  0.1079797E-03
    1       -6.088601   1.000000
    2       -1.782573   1.000000
    3        5.939425  -0.000000
    4        5.939525  -0.000000
    5       11.839841   0.000000
    6       11.839970   0.000000
    7       13.211322   0.000000
    8       14.056990   0.000000
 
  0.0000000E+00  0.0000000E+00  0.6500000E+00  0.1079797E-03
    1       -6.271438   1.000000
    2       -1.368660   1.000000
    3        5.895111  -0.000000
    4        5.895212  -0.000000
    5       11.800795   0.000000
    6       11.800922   0.000000
    7       13.004113   0.000000
    8       13.224388   0.000000
 
  0.0000000E+00  0.0000000E+00  0.7000000E+00  0.1079797E-03
    1       -6.471543   1.000000
    2       -0.849993   1.000000
    3        5.840786  -0.000000
    4        5.840886  -0.000000
    5       11.753038   0.000000
    6       11.753163   0.000000
    7       11.875164   0.000000
    8       13.241078   0.000000
 
  0.0000000E+00  0.0000000E+00  0.7500000E+00  0.1079797E-03
    1       -6.665319   1.000000
    2       -0.256904   1.000000
    3        5.782240  -0.000000
    4        5.782339  -0.000000
    5       10.744663   0.000000
    6       11.701840   0.000000
    7       11.701964   0.000000
    8       13.259639   0.000000
 
  0.0000000E+00  0.0000000E+00  0.8000000E+00  0.1079797E-03
    1       -6.837522   1.000000
    2        0.382759   1.000000
    3        5.724682  -0.000001
    4        5.724781  -0.000001
    5        9.656549   0.000000
    6       11.652254   0.000000
    7       11.652376   0.000000
    8       13.279697   0.000000
 
  0.0000000E+00  0.0000000E+00  0.8500000E+00  0.1079797E-03
    1       -6.978636   1.000000
    2        1.036274   1.000000
    3        5.674405  -0.000030
    4        5.674504  -0.000030
    5        8.651188   0.000000
    6       11.608954   0.000000
    7       11.609075   0.000000
    8       13.295590   0.000000
 
  0.0000000E+00  0.0000000E+00  0.9000000E+00  0.1079797E-03
    1       -7.082796   1.000000
    2        1.650340   1.000000
    3        5.635305  -0.000269
    4        5.635403  -0.000268
    5        7.784706  -0.000000
    6       11.575517   0.000000
    7       11.575636   0.000000
    8       13.308334   0.000000
 
  0.0000000E+00  0.0000000E+00  0.9500000E+00  0.1079797E-03
    1       -7.146535   1.000000
    2        2.127129   1.000000
    3        5.610559  -0.000901
    4        5.610656  -0.000897
    5        7.156245  -0.000000
    6       11.554556   0.000000
    7       11.554673   0.000000
    8       13.316567   0.000000
 
  0.0000000E+00  0.0000000E+00  0.1000000E+01  0.1079797E-03
    1       -7.167961   1.000000
    2        2.316401   1.000000
    3        5.602051  -0.001321
    4        5.602148  -0.001315
    5        6.916375  -0.000000
    6       11.548002   0.000000
    7       11.548111   0.000000
    8       13.319381   0.000000
 
  0.0000000E+00  0.5000000E-01  0.0000000E+00  0.1079797E-03
    1       -7.124522   1.000000
    2        2.360174   1.000000
    3        5.370803   0.368272
    4        5.493827  -0.032200
    5        6.954616  -0.000000
    6       11.525091   0.000000
    7       11.744998   0.000000
    8       13.415435   0.000000
 
  0.0000000E+00  0.5000000E-01  0.5000000E-01  0.1079797E-03
    1       -7.103177   1.000000
    2        2.169171   1.000000
    3        5.379701   0.298032
    4        5.502154  -0.028909
    5        7.193696  -0.000000
    6       11.533380   0.000000
    7       11.749947   0.000000
    8       13.402999   0.000000
 
  0.0000000E+00  0.5000000E-01  0.1000000E+00  0.1079797E-03
    1       -7.039574   1.000000
    2        1.693558   1.000000
    3        5.405748   0.125937
    4        5.526683  -0.017829
    5        7.820224  -0.000000
    6       11.559206   0.000000
    7       11.772538   0.000000
    8       13.366527   0.000000
 
  0.0000000E+00  0.5000000E-01  0.1500000E+00  0.1079797E-03
    1       -6.935645   1.000000
    2        1.080542   1.000000
    3        5.446877  -0.014481
    4        5.565268  -0.005662
    5        8.683372   0.000000
    6       11.600237   0.000000
    7       11.806639   0.000000
    8       13.308522   0.000000
 
  0.0000000E+00  0.5000000E-01  0.2000000E+00  0.1079797E-03
    1       -6.794874   1.000000
    2        0.427855   1.000000
    3        5.500009  -0.029817
    4        5.615187  -0.000727
    5        9.682434   0.000000
    6       11.653598   0.000000
    7       11.850319   0.000000
    8       13.232231   0.000000
 
  0.0000000E+00  0.5000000E-01  0.2500000E+00  0.1079797E-03
    1       -6.623097   1.000000
    2       -0.211117   1.000000
    3        5.562058  -0.006327
    4        5.671743  -0.000036
    5       10.751222   0.000000
    6       11.727654   0.000000
    7       11.900925   0.000000
    8       13.143923   0.000000
 
  0.0000000E+00  0.5000000E-01  0.3000000E+00  0.1079797E-03
    1       -6.429876   1.000000
    2       -0.803206   1.000000
    3        5.624131  -0.000473
    4        5.729500  -0.000001
    5       11.636760   0.000000
    6       11.953090   0.000000
    7       12.029947   0.000000
    8       13.052851   0.000000
 
  0.0000000E+00  0.5000000E-01  0.3500000E+00  0.1079797E-03
    1       -6.230428   1.000000
    2       -1.320942   1.000000
    3        5.681114  -0.000020
    4        5.783954  -0.000000
    5       11.782045   0.000000
    6       12.001749   0.000000
    7       12.966664   0.000000
    8       13.066444   0.000000
 
  0.0000000E+00  0.5000000E-01  0.4000000E+00  0.1079797E-03
    1       -6.048153   1.000000
    2       -1.733585   1.000000
    3        5.725954  -0.000001
    4        5.826688  -0.000000
    5       11.838603   0.000000
    6       12.041515   0.000000
    7       12.894684   0.000000
    8       14.105776   0.000000
 
  0.0000000E+00  0.5000000E-01  0.4500000E+00  0.1079797E-03
    1       -5.915703   1.000000
    2       -2.005464   1.000000
    3        5.756122  -0.000000
    4        5.855369  -0.000000
    5       11.871952   0.000000
    6       12.067801   0.000000
    7       12.846151   0.000000
    8       14.924952   0.000000
 
  0.0000000E+00  0.5000000E-01  0.5000000E+00  0.1079797E-03
    1       -5.866348   1.000000
    2       -2.100831   1.000000
    3        5.768248  -0.000000
    4        5.863300  -0.000000
    5       11.883646   0.000000
    6       12.076628   0.000000
    7       12.830483   0.000000
    8       15.168570   0.000000
 
  0.0000000E+00  0.5000000E-01  0.5500000E+00  0.1079797E-03
    1       -5.915703   1.000000
    2       -2.005464   1.000000
    3        5.756122  -0.000000
    4        5.855369  -0.000000
    5       11.871952   0.000000
    6       12.067801   0.000000
    7       12.846151   0.000000
    8       14.924578   0.000000
 
  0.0000000E+00  0.5000000E-01  0.6000000E+00  0.1079797E-03
    1       -6.048153   1.000000
    2       -1.733585   1.000000
    3        5.725954  -0.000001
    4        5.826688  -0.000000
    5       11.838603   0.000000
    6       12.041515   0.000000
    7       12.894684   0.000000
    8       14.105776   0.000000
 
  0.0000000E+00  0.5000000E-01  0.6500000E+00  0.1079797E-03
    1       -6.230428   1.000000
    2       -1.320942   1.000000
    3        5.681114  -0.000020
    4        5.783954  -0.000000
    5       11.782045   0.000000
    6       12.001749   0.000000
    7       12.966664   0.000000
    8       13.066444   0.000000
 
  0.0000000E+00  0.5000000E-01  0.7000000E+00  0.1079797E-03
    1       -6.429876   1.000000
    2       -0.803206   1.000000
    3        5.624131  -0.000473
    4        5.729500  -0.000001
    5       11.636760   0.000000
    6       11.953090   0.000000
    7       12.029947   0.000000
    8       13.052851   0.000000
 
  0.0000000E+00  0.5000000E-01  0.7500000E+00  0.1079797E-03
    1       -6.623097   1.000000
    2       -0.211117   1.000000
    3        5.562058  -0.006327
    4        5.671743  -0.000036
    5       10.751222   0.000000
    6       11.727654   0.000000
    7       11.900925   0.000000
    8       13.143923   0.000000
 
  0.0000000E+00  0.5000000E-01  0.8000000E+00  0.1079797E-03
    1       -6.794874   1.000000
    2        0.427855   1.000000
    3        5.500009  -0.029817
    4        5.615187  -0.000727
    5        9.682434   0.000000
    6       11.653599   0.000000
    7       11.850319   0.000000
    8       13.232232   0.000000
 
  0.0000000E+00  0.5000000E-01  0.8500000E+00  0.1079797E-03
    1       -6.935645   1.000000
    2        1.080542   1.000000
    3        5.446877  -0.014481
    4        5.565268  -0.005662
    5        8.683372   0.000000
    6       11.600237   0.000000
    7       11.806639   0.000000
    8       13.308522   0.000000
 
  0.0000000E+00  0.5000000E-01  0.9000000E+00  0.1079797E-03
    1       -7.039574   1.000000
    2        1.693558   1.000000
    3        5.405748   0.125937
    4        5.526683  -0.017829
    5        7.820224  -0.000000
    6       11.559206   0.000000
    7       11.772538   0.000000
    8       13.366527   0.000000
 
  0.0000000E+00  0.5000000E-01  0.9500000E+00  0.1079797E-03
    1       -7.103177   1.000000
    2        2.169171   1.000000
    3        5.379701   0.298032
    4        5.502154  -0.028909
    5        7.193696  -0.000000
    6       11.533380   0.000000
    7       11.749947   0.000000
    8       13.402999   0.000000
 
  0.0000000E+00  0.5000000E-01  0.1000000E+01  0.1079797E-03
    1       -7.124522   1.000000
    2        2.360174   1.000000
    3        5.370803   0.368272
    4        5.493827  -0.032200
    5        6.954616  -0.000000
    6       11.525091   0.000000
    7       11.744998   0.000000
    8       13.415435   0.000000
 
  0.0000000E+00  0.1000000E+00  0.0000000E+00  0.1079797E-03
    1       -6.994467   1.000000
    2        2.486840   1.000000
    3        4.752617   1.000000
    4        5.209412   1.029557
    5        7.073374  -0.000000
    6       11.401523   0.000000
    7       12.291860   0.000000
    8       13.714235   0.000000
 
  0.0000000E+00  0.1000000E+00  0.5000000E-01  0.1079797E-03
    1       -6.973257   1.000000
    2        2.297298   1.000000
    3        4.761142   1.000000
    4        5.217346   1.032588
    5        7.310280  -0.000000
    6       11.413127   0.000000
    7       12.297960   0.000000
    8       13.643325   0.000000
 
  0.0000000E+00  0.1000000E+00  0.1000000E+00  0.1079797E-03
    1       -6.910092   1.000000
    2        1.822724   1.000000
    3        4.790536   1.000000
    4        5.240985   1.034230
    5        7.930808  -0.000000
    6       11.447559   0.000000
    7       12.319574   0.000000
    8       13.467358   0.000000
 
  0.0000000E+00  0.1000000E+00  0.1500000E+00  0.1079797E-03
    1       -6.806808   1.000000
    2        1.212588   1.000000
    3        4.837502   1.000000
    4        5.279551   0.977535
    5        8.784252   0.000000
    6       11.505787   0.000000
    7       12.356072   0.000000
    8       13.238620   0.000000
 
  0.0000000E+00  0.1000000E+00  0.2000000E+00  0.1079797E-03
    1       -6.667027   1.000000
    2        0.562403   1.000000
    3        4.895888   1.000000
    4        5.327625   0.722478
    5        9.763999   0.000000
    6       11.589712   0.000000
    7       12.402263   0.000000
    8       12.983313   0.000000
 
  0.0000000E+00  0.1000000E+00  0.2500000E+00  0.1079797E-03
    1       -6.496580   1.000000
    2       -0.073959   1.000000
    3        4.963410   1.000000
    4        5.381933   0.281142
    5       10.776730   0.000000
    6       11.732601   0.000000
    7       12.455294   0.000000
    8       12.727180   0.000000
 
  0.0000000E+00  0.1000000E+00  0.3000000E+00  0.1079797E-03
    1       -6.305021   1.000000
    2       -0.663138   1.000000
    3        5.032916   1.000026
    4        5.437362   0.004203
    5       11.484812   0.000000
    6       12.221523   0.000000
    7       12.493221   0.000000
    8       12.510075   0.000000
 
  0.0000000E+00  0.1000000E+00  0.3500000E+00  0.1079797E-03
    1       -6.107593   1.000000
    2       -1.178278   1.000000
    3        5.097606   1.000826
    4        5.490844  -0.033183
    5       11.682019   0.000000
    6       12.274794   0.000000
    7       12.560593   0.000000
    8       13.225928   0.000000
 
  0.0000000E+00  0.1000000E+00  0.4000000E+00  0.1079797E-03
    1       -5.927424   1.000000
    2       -1.588244   1.000000
    3        5.150931   1.006989
    4        5.532136  -0.015565
    5       11.775827   0.000000
    6       12.109452   0.000000
    7       12.602435   0.000000
    8       14.237455   0.000000
 
  0.0000000E+00  0.1000000E+00  0.4500000E+00  0.1079797E-03
    1       -5.796625   1.000000
    2       -1.857702   1.000000
    3        5.187480   1.019631
    4        5.557507  -0.007371
    5       11.837512   0.000000
    6       11.997650   0.000000
    7       12.629806   0.000000
    8       15.037206   0.000000
 
  0.0000000E+00  0.1000000E+00  0.5000000E+00  0.1079797E-03
    1       -5.748145   1.000000
    2       -1.952346   1.000000
    3        5.199723   1.025241
    4        5.566142  -0.005491
    5       11.867873   0.000000
    6       11.948474   0.000000
    7       12.639073   0.000000
    8       15.360581   0.000000
 
  0.0000000E+00  0.1000000E+00  0.5500000E+00  0.1079797E-03
    1       -5.796625   1.000000
    2       -1.857702   1.000000
    3        5.187480   1.019631
    4        5.557507  -0.007371
    5       11.837512   0.000000
    6       11.997650   0.000000
    7       12.629806   0.000000
    8       15.037212   0.000000
 
  0.0000000E+00  0.1000000E+00  0.6000000E+00  0.1079797E-03
    1       -5.927424   1.000000
    2       -1.588244   1.000000
    3        5.150931   1.006989
    4        5.532136  -0.015565
    5       11.775827   0.000000
    6       12.109452   0.000000
    7       12.602435   0.000000
    8       14.237458   0.000000
 
  0.0000000E+00  0.1000000E+00  0.6500000E+00  0.1079797E-03
    1       -6.107593   1.000000
    2       -1.178278   1.000000
    3        5.097606   1.000826
    4        5.490844  -0.033183
    5       11.682019   0.000000
    6       12.274794   0.000000
    7       12.560593   0.000000
    8       13.225938   0.000000
 
  0.0000000E+00  0.1000000E+00  0.7000000E+00  0.1079797E-03
    1       -6.305021   1.000000
    2       -0.663138   1.000000
    3        5.032916   1.000026
    4        5.437362   0.004203
    5       11.484812   0.000000
    6       12.221523   0.000000
    7       12.493221   0.000000
    8       12.510076   0.000000
 
  0.0000000E+00  0.1000000E+00  0.7500000E+00  0.1079797E-03
    1       -6.496580   1.000000
    2       -0.073959   1.000000
    3        4.963410   1.000000
    4        5.381933   0.281142
    5       10.776730   0.000000
    6       11.732601   0.000000
    7       12.455294   0.000000
    8       12.727180   0.000000
 
  0.0000000E+00  0.1000000E+00  0.8000000E+00  0.1079797E-03
    1       -6.667027   1.000000
    2        0.562403   1.000000
    3        4.895888   1.000000
    4        5.327625   0.722478
    5        9.763999   0.000000
    6       11.589712   0.000000
    7       12.402263   0.000000
    8       12.983313   0.000000
 
  0.0000000E+00  0.1000000E+00  0.8500000E+00  0.1079797E-03
    1       -6.806808   1.000000
    2        1.212588   1.000000
    3        4.837502   1.000000
    4        5.279551   0.977535
    5        8.784252   0.000000
    6       11.505787   0.000000
    7       12.356072   0.000000
    8       13.238620   0.000000
 
  0.0000000E+00  0.1000000E+00  0.9000000E+00  0.1079797E-03
    1       -6.910092   1.000000
    2        1.822724   1.000000
    3        4.790536   1.000000
    4        5.240985   1.034230
    5        7.930808  -0.000000
    6       11.447559   0.000000
    7       12.319574   0.000000
    8       13.467359   0.000000
 
  0.0000000E+00  0.1000000E+00  0.9500000E+00  0.1079797E-03
    1       -6.973257   1.000000
    2        2.297298   1.000000
    3        4.761142   1.000000
    4        5.217346   1.032588
    5        7.310280  -0.000000
    6       11.413127   0.000000
    7       12.297960   0.000000
    8       13.643333   0.000000
 
  0.0000000E+00  0.1000000E+00  0.1000000E+01  0.1079797E-03
    1       -6.994467   1.000000
    2        2.486840   1.000000
    3        4.752617   1.000000
    4        5.209412   1.029557
    5        7.073374  -0.000000
    6       11.401523   0.000000
    7       12.291860   0.000000
    8       13.714237   0.000000
 
  0.0000000E+00  0.1500000E+00  0.0000000E+00  0.1079797E-03
    1       -6.778367   1.000000
    2        2.696964   1.000000
    3        3.886739   1.000000
    4        4.831934   1.000000
    5        7.273253  -0.000000
    6       11.159220   0.000000
    7       13.103703   0.000000
    8       13.879102   0.000000
 
  0.0000000E+00  0.1500000E+00  0.5000000E-01  0.1079797E-03
    1       -6.757351   1.000000
    2        2.508517   1.000000
    3        3.898280   1.000000
    4        4.839365   1.000000
    5        7.506591  -0.000000
    6       11.173548   0.000000
    7       13.110391   0.000000
    8       13.590006   0.000000
 
  0.0000000E+00  0.1500000E+00  0.1000000E+00  0.1079797E-03
    1       -6.694812   1.000000
    2        2.037851   1.000000
    3        3.932340   1.000000
    4        4.862087   1.000000
    5        8.117588   0.000000
    6       11.217142   0.000000
    7       13.134090   0.000000
    8       13.191540   0.000000
 
  0.0000000E+00  0.1500000E+00  0.1500000E+00  0.1079797E-03
    1       -6.592721   1.000000
    2        1.431100   1.000000
    3        3.983893   1.000000
    4        4.897137   1.000000
    5        8.953077   0.000000
    6       11.291057   0.000000
    7       12.783994   0.000000
    8       13.171593   0.000000
 
  0.0000000E+00  0.1500000E+00  0.2000000E+00  0.1079797E-03
    1       -6.454548   1.000000
    2        0.785370   1.000000
    3        4.049981   1.000000
    4        4.942991   1.000000
    5        9.894552   0.000000
    6       11.406098   0.000000
    7       12.390999   0.000000
    8       13.220105   0.000000
 
  0.0000000E+00  0.1500000E+00  0.2500000E+00  0.1079797E-03
    1       -6.286259   1.000000
    2        0.153473   1.000000
    3        4.126799   1.000000
    4        4.995067   1.000002
    5       10.775970   0.000000
    6       11.631124   0.000000
    7       12.067461   0.000000
    8       13.275932   0.000000
 
  0.0000000E+00  0.1500000E+00  0.3000000E+00  0.1079797E-03
    1       -6.097461   1.000000
    2       -0.431405   1.000000
    3        4.206574   1.000000
    4        5.050542   1.000073
    5       11.184899   0.000000
    6       11.712233   0.000000
    7       12.446536   0.000000
    8       13.334394   0.000000
 
  0.0000000E+00  0.1500000E+00  0.3500000E+00  0.1079797E-03
    1       -5.903039   1.000000
    2       -0.941156   1.000000
    3        4.282192   1.000000
    4        5.099419   1.000898
    5       11.153116   0.000000
    6       11.663604   0.000000
    7       13.389143   0.000000
    8       13.442938   0.000000
 
  0.0000000E+00  0.1500000E+00  0.4000000E+00  0.1079797E-03
    1       -5.726365   1.000000
    2       -1.346918   1.000000
    3        4.345706   1.000000
    4        5.138806   1.004573
    5       11.000913   0.000000
    6       11.713976   0.000000
    7       13.433504   0.000000
    8       14.430908   0.000000
 
  0.0000000E+00  0.1500000E+00  0.4500000E+00  0.1079797E-03
    1       -5.598628   1.000000
    2       -1.613040   1.000000
    3        4.387089   1.000000
    4        5.163792   1.010503
    5       10.883755   0.000000
    6       11.761869   0.000000
    7       13.463115   0.000000
    8       15.199719   0.000000
 
  0.0000000E+00  0.1500000E+00  0.5000000E+00  0.1079797E-03
    1       -5.551509   1.000000
    2       -1.707533   1.000000
    3        4.399772   1.000000
    4        5.172066   1.013321
    5       10.841445   0.000000
    6       11.778823   0.000000
    7       13.472077   0.000000
    8       15.497156   0.000000
 
  0.0000000E+00  0.1500000E+00  0.5500000E+00  0.1079797E-03
    1       -5.598628   1.000000
    2       -1.613040   1.000000
    3        4.387089   1.000000
    4        5.163792   1.010503
    5       10.883755   0.000000
    6       11.761869   0.000000
    7       13.463115   0.000000
    8       15.199584   0.000000
 
  0.0000000E+00  0.1500000E+00  0.6000000E+00  0.1079797E-03
    1       -5.726365   1.000000
    2       -1.346918   1.000000
    3        4.345706   1.000000
    4        5.138806   1.004573
    5       11.000913   0.000000
    6       11.713976   0.000000
    7       13.433504   0.000000
    8       14.430909   0.000000
 
  0.0000000E+00  0.1500000E+00  0.6500000E+00  0.1079797E-03
    1       -5.903039   1.000000
    2       -0.941156   1.000000
    3        4.282192   1.000000
    4        5.099419   1.000898
    5       11.153116   0.000000
    6       11.663604   0.000000
    7       13.389144   0.000000
    8       13.442938   0.000000
 
  0.0000000E+00  0.1500000E+00  0.7000000E+00  0.1079797E-03
    1       -6.097461   1.000000
    2       -0.431405   1.000000
    3        4.206574   1.000000
    4        5.050542   1.000073
    5       11.184899   0.000000
    6       11.712233   0.000000
    7       12.446536   0.000000
    8       13.334394   0.000000
 
  0.0000000E+00  0.1500000E+00  0.7500000E+00  0.1079797E-03
    1       -6.286259   1.000000
    2        0.153473   1.000000
    3        4.126799   1.000000
    4        4.995067   1.000002
    5       10.775970   0.000000
    6       11.631124   0.000000
    7       12.067461   0.000000
    8       13.275934   0.000000
 
  0.0000000E+00  0.1500000E+00  0.8000000E+00  0.1079797E-03
    1       -6.454548   1.000000
    2        0.785370   1.000000
    3        4.049981   1.000000
    4        4.942991   1.000000
    5        9.894552   0.000000
    6       11.406098   0.000000
    7       12.390999   0.000000
    8       13.220105   0.000000
 
  0.0000000E+00  0.1500000E+00  0.8500000E+00  0.1079797E-03
    1       -6.592721   1.000000
    2        1.431100   1.000000
    3        3.983893   1.000000
    4        4.897137   1.000000
    5        8.953077   0.000000
    6       11.291057   0.000000
    7       12.783994   0.000000
    8       13.171593   0.000000
 
  0.0000000E+00  0.1500000E+00  0.9000000E+00  0.1079797E-03
    1       -6.694812   1.000000
    2        2.037851   1.000000
    3        3.932340   1.000000
    4        4.862087   1.000000
    5        8.117588   0.000000
    6       11.217142   0.000000
    7       13.134089   0.000000
    8       13.191540   0.000000
 
  0.0000000E+00  0.1500000E+00  0.9500000E+00  0.1079797E-03
    1       -6.757351   1.000000
    2        2.508517   1.000000
    3        3.898280   1.000000
    4        4.839365   1.000000
    5        7.506591  -0.000000
    6       11.173548   0.000000
    7       13.110392   0.000000
    8       13.590006   0.000000
 
  0.0000000E+00  0.1500000E+00  0.1000000E+01  0.1079797E-03
    1       -6.778367   1.000000
    2        2.696964   1.000000
    3        3.886739   1.000000
    4        4.831934   1.000000
    5        7.273253  -0.000000
    6       11.159220   0.000000
    7       13.103703   0.000000
    8       13.879104   0.000000
 
  0.0000000E+00  0.2000000E+00  0.0000000E+00  0.1079797E-03
    1       -6.477185   1.000000
    2        2.897927   1.000000
    3        2.988403   1.000000
    4        4.427299   1.000000
    5        7.547667  -0.000000
    6       10.862276   0.000000
    7       13.019734   0.000000
    8       14.101872   0.000000
 
  0.0000000E+00  0.2000000E+00  0.5000000E-01  0.1079797E-03
    1       -6.456465   1.000000
    2        2.791296   1.000000
    3        2.921857   1.000000
    4        4.434223   1.000000
    5        7.776001  -0.000000
    6       10.878397   0.000000
    7       12.839593   0.000000
    8       14.108594   0.000000
 
  0.0000000E+00  0.2000000E+00  0.1000000E+00  0.1079797E-03
    1       -6.394842   1.000000
    2        2.331447   1.000000
    3        2.953136   1.000000
    4        4.456040   1.000000
    5        8.370991   0.000000
    6       10.926496   0.000000
    7       12.447436   0.000000
    8       14.133423   0.000000
 
  0.0000000E+00  0.2000000E+00  0.1500000E+00  0.1079797E-03
    1       -6.294253   1.000000
    2        1.732848   1.000000
    3        3.009284   1.000000
    4        4.491172   1.000000
    5        9.172604   0.000000
    6       11.005463   0.000000
    7       12.012629   0.000000
    8       14.172986   0.000000
 
  0.0000000E+00  0.2000000E+00  0.2000000E+00  0.1079797E-03
    1       -6.158336   1.000000
    2        1.093937   1.000000
    3        3.082861   1.000000
    4        4.537242   1.000000
    5       10.014504   0.000000
    6       11.105712   0.000000
    7       11.670253   0.000000
    8       14.224383   0.000000
 
  0.0000000E+00  0.2000000E+00  0.2500000E+00  0.1079797E-03
    1       -5.993027   1.000000
    2        0.468600   1.000000
    3        3.167682   1.000000
    4        4.587176   1.000000
    5       10.498361   0.000000
    6       11.170551   0.000000
    7       11.844993   0.000000
    8       14.283293   0.000000
 
  0.0000000E+00  0.2000000E+00  0.3000000E+00  0.1079797E-03
    1       -5.807569   1.000000
    2       -0.109060   1.000000
    3        3.258154   1.000000
    4        4.638166   1.000000
    5       10.357778   0.000000
    6       11.290468   0.000000
    7       12.688631   0.000000
    8       14.345549   0.000000
 