 BEGIN_INFO
 #
 # this is a Band-XCRYSDEN-Structure-File
 # aimed at Visualization of Fermi Surface
 #
 # Case:   ***.bxsf
 #
 Fermi Energy: 5.1791
 END_INFO
 BEGIN_BLOCK_BANDGRID_3D
 band_energies
 BANDGRID_3D_BANDS
  8
  21   21    21
  0.000000  0.000000  0.000000
  0.324149  0.187148  0.000000
  0.000000  0.374295  0.000000
  0.000000  0.000000  0.283768
 BAND:  1  
 -7.167961 -7.146535 -7.082796 -6.978636 -6.837522 -6.665319 
 -6.471543 -6.271438 -6.088601 -5.955212 -5.905937 -5.955212 
 -6.088601 -6.271438 -6.471543 -6.665319 -6.837522 -6.978636 
 -7.082796 -7.146535 -7.167961 -7.124522 -7.103177 -7.039574 
 -6.935645 -6.794874 -6.623097 -6.429876 -6.230428 -6.048153 
 -5.915703 -5.866348 -5.915703 -6.048153 -6.230428 -6.429876 
 -6.623097 -6.794874 -6.935645 -7.039574 -7.103177 -7.124522 
 -6.994467 -6.973257 -6.910092 -6.806808 -6.667027 -6.496580 
 -6.305021 -6.107593 -5.927424 -5.796625 -5.748145 -5.796625 
 -5.927424 -6.107593 -6.305021 -6.496580 -6.667027 -6.806808 
 -6.910092 -6.973257 -6.994467 -6.778367 -6.757351 -6.694812 
 -6.592721 -6.454548 -6.286259 -6.097461 -5.903039 -5.726365 
 -5.598628 -5.551509 -5.598628 -5.726365 -5.903039 -6.097461 
 -6.286259 -6.454548 -6.592721 -6.694812 -6.757351 -6.778367 
 -6.477185 -6.456465 -6.394842 -6.294253 -6.158336 -5.993027 
 -5.807569 -5.617626 -5.445889 -5.322049 -5.276339 -5.322049 
 -5.445889 -5.617626 -5.807569 -5.993027 -6.158336 -6.294253 
 -6.394842 -6.456465 -6.477185 -6.092252 -6.071915 -6.011354 
 -5.912727 -5.779611 -5.617969 -5.437172 -5.252891 -5.086802 
 -4.967634 -4.923923 -4.967634 -5.086802 -5.252891 -5.437172 
 -5.617969 -5.779611 -5.912727 -6.011354 -6.071915 -6.092252 
 -5.625314 -5.605460 -5.546394 -5.449994 -5.320254 -5.162846 
 -4.988044 -4.810154 -4.650673 -4.536614 -4.494843 -4.536614 
 -4.650673 -4.810154 -4.988044 -5.162846 -5.320254 -5.449994 
 -5.546394 -5.605460 -5.625314 -5.079895 -5.060537 -5.002946 
 -4.909429 -4.782767 -4.630723 -4.461812 -4.291152 -4.138746 
 -4.030739 -3.991294 -4.030739 -4.138746 -4.291152 -4.461812 
 -4.630723 -4.782767 -4.909429 -5.002946 -5.060537 -5.079895 
 -4.460875 -4.442259 -4.386572 -4.295820 -4.174036 -4.027713 
 -3.865870 -3.702690 -3.557857 -3.455962 -3.418786 -3.455962 
 -3.557857 -3.702690 -3.865870 -4.027713 -4.174036 -4.295820 
 -4.386572 -4.442259 -4.460875 -3.789428 -3.770998 -3.717520 
 -3.630501 -3.513851 -3.373504 -3.218648 -3.063145 -2.925320 
 -2.828534 -2.793587 -2.828534 -2.925320 -3.063145 -3.218648 
 -3.373504 -3.513851 -3.630501 -3.717520 -3.770998 -3.789428 
 -3.290478 -3.273190 -3.221509 -3.138065 -3.025554 -2.890258 
 -2.739993 -2.588257 -2.453366 -2.358248 -2.323414 -2.358248 
 -2.453366 -2.588257 -2.739993 -2.890258 -3.025554 -3.138065 
 -3.221509 -3.273190 -3.290478 -3.789428 -3.770998 -3.717520 
 -3.630501 -3.513851 -3.373504 -3.218648 -3.063145 -2.925320 
 -2.828534 -2.793587 -2.828534 -2.925320 -3.063145 -3.218648 
 -3.373504 -3.513851 -3.630501 -3.717520 -3.770998 -3.789428 
 -4.460875 -4.442259 -4.386572 -4.295820 -4.174036 -4.027713 
 -3.865870 -3.702690 -3.557857 -3.455962 -3.418786 -3.455962 
 -3.557857 -3.702690 -3.865870 -4.027713 -4.174036 -4.295820 
 -4.386572 -4.442259 -4.460875 -5.079895 -5.060537 -5.002946 
 -4.909429 -4.782767 -4.630723 -4.461812 -4.291152 -4.138746 
 -4.030739 -3.991294 -4.030739 -4.138746 -4.291152 -4.461812 
 -4.630723 -4.782767 -4.909429 -5.002946 -5.060537 -5.079895 
 -5.625314 -5.605460 -5.546394 -5.449994 -5.320254 -5.162846 
 -4.988044 -4.810154 -4.650673 -4.536614 -4.494843 -4.536614 
 -4.650673 -4.810154 -4.988044 -5.162846 -5.320254 -5.449994 
 -5.546394 -5.605460 -5.625314 -6.092252 -6.071915 -6.011354 
 -5.912727 -5.779611 -5.617969 -5.437172 -5.252891 -5.086802 
 -4.967634 -4.923923 -4.967634 -5.086802 -5.252891 -5.437172 
 -5.617969 -5.779611 -5.912727 -6.011354 -6.071915 -6.092252 
 -6.477185 -6.456465 -6.394842 -6.294253 -6.158336 -5.993027 
 -5.807569 -5.617626 -5.445889 -5.322049 -5.276339 -5.322049 
 -5.445889 -5.617626 -5.807569 -5.993027 -6.158336 -6.294253 
 -6.394842 -6.456465 -6.477185 -6.778367 -6.757351 -6.694812 
 -6.592721 -6.454548 -6.286259 -6.097461 -5.903039 -5.726365 
 -5.598628 -5.551509 -5.598628 -5.726365 -5.903039 -6.097461 
 -6.286259 -6.454548 -6.592721 -6.694812 -6.757351 -6.778367 
 -6.994467 -6.973257 -6.910092 -6.806808 -6.667027 -6.496580 
 -6.305021 -6.107593 -5.927424 -5.796625 -5.748145 -5.796625 
 -5.927424 -6.107593 -6.305021 -6.496580 -6.667027 -6.806808 
 -6.910092 -6.973257 -6.994467 -7.124522 -7.103177 -7.039574 
 -6.935645 -6.794874 -6.623097 -6.429876 -6.230428 -6.048153 
 -5.915703 -5.866348 -5.915703 -6.048153 -6.230428 -6.429876 
 -6.623097 -6.794874 -6.935645 -7.039574 -7.103177 -7.124522 
 -7.167961 -7.146535 -7.082796 -6.978636 -6.837522 -6.665319 
 -6.471543 -6.271438 -6.088601 -5.955212 -5.905937 -5.955212 
 -6.088601 -6.271438 -6.471543 -6.665319 -6.837522 -6.978636 
 -7.082796 -7.146535 -7.167961 -7.124522 -7.103177 -7.039574 
 -6.935645 -6.794874 -6.623097 -6.429876 -6.230428 -6.048153 
 -5.915703 -5.866348 -5.915703 -6.048153 -6.230428 -6.429876 
 -6.623097 -6.794874 -6.935645 -7.039574 -7.103177 -7.124522 
 -7.037833 -7.016514 -6.953191 -6.849740 -6.709609 -6.538724 
 -6.346612 -6.148525 -5.967568 -5.836273 -5.787534 -5.836273 
 -5.967568 -6.148525 -6.346612 -6.538724 -6.709609 -6.849740 
 -6.953191 -7.016514 -7.037833 -6.864727 -6.843625 -6.780810 
 -6.678235 -6.539446 -6.370323 -6.180417 -5.984837 -5.806694 
 -5.677834 -5.630066 -5.677834 -5.806694 -5.984837 -6.180417 
 -6.370323 -6.539446 -6.678235 -6.780810 -6.843625 -6.864727 
 -6.606065 -6.585227 -6.523219 -6.421975 -6.285087 -6.118537 
 -5.931673 -5.739824 -5.565961 -5.440460 -5.394186 -5.440460 
 -5.565961 -5.739824 -5.931673 -6.118537 -6.285087 -6.421975 
 -6.523219 -6.585227 -6.606065 -6.263012 -6.242492 -6.181464 
 -6.082002 -5.947646 -5.784362 -5.601556 -5.414776 -5.246094 
 -5.125023 -5.080455 -5.125023 -5.246094 -5.414776 -5.601556 
 -5.784362 -5.947646 -6.082002 -6.181464 -6.242492 -6.263012 
 -5.837062 -5.816977 -5.757222 -5.659895 -5.528519 -5.369270 
 -5.191717 -5.011009 -4.848513 -4.732328 -4.689519 -4.732328 
 -4.848513 -5.011009 -5.191717 -5.369270 -5.528519 -5.659895 
 -5.757222 -5.816977 -5.837062 -5.330789 -5.311190 -5.252922 
 -5.158003 -5.030206 -4.875545 -4.704094 -4.530097 -4.374271 
 -4.263691 -4.223254 -4.263691 -4.374271 -4.530097 -4.704094 
 -4.875545 -5.030206 -5.158003 -5.252922 -5.311190 -5.330789 
 -4.747752 -4.728742 -4.672196 -4.580180 -4.456474 -4.307214 
 -4.142328 -3.975702 -3.827422 -3.722856 -3.684681 -3.722856 
 -3.827422 -3.975702 -4.142328 -4.307214 -4.456474 -4.580180 
 -4.672196 -4.728742 -4.747752 -4.098653 -4.080295 -4.025528 
 -3.936654 -3.817767 -3.674662 -3.516669 -3.357690 -3.217095 
 -3.118035 -3.081863 -3.118035 -3.217095 -3.357690 -3.516669 
 -3.674662 -3.817767 -3.936654 -4.025528 -4.080295 -4.098653 
 -3.437640 -3.420001 -3.367821 -3.283047 -3.169189 -3.032092 
 -2.880704 -2.728231 -2.593382 -2.498414 -2.463950 -2.498414 
 -2.593382 -2.728231 -2.880704 -3.032092 -3.169189 -3.283047 
 -3.367821 -3.420001 -3.437640 -3.437642 -3.420003 -3.367823 
 -3.283049 -3.169191 -3.032094 -2.880706 -2.728233 -2.593385 
 -2.498416 -2.463952 -2.498416 -2.593385 -2.728233 -2.880706 
 -3.032094 -3.169191 -3.283049 -3.367823 -3.420003 -3.437642 
 -4.098655 -4.080297 -4.025530 -3.936656 -3.817769 -3.674665 
 -3.516671 -3.357692 -3.217098 -3.118038 -3.081865 -3.118038 
 -3.217098 -3.357692 -3.516671 -3.674665 -3.817769 -3.936656 
 -4.025530 -4.080297 -4.098655 -4.747754 -4.728744 -4.672197 
 -4.580182 -4.456476 -4.307216 -4.142330 -3.975704 -3.827424 
 -3.722859 -3.684684 -3.722859 -3.827424 -3.975704 -4.142330 
 -4.307216 -4.456476 -4.580182 -4.672197 -4.728744 -4.747754 
 -5.330790 -5.311191 -5.252924 -5.158005 -5.030208 -4.875545 
 -4.704094 -4.530097 -4.374271 -4.263691 -4.223254 -4.263691 
 -4.374271 -4.530097 -4.704094 -4.875545 -5.030208 -5.158005 
 -5.252924 -5.311191 -5.330790 -5.837063 -5.816978 -5.757223 
 -5.659896 -5.528520 -5.369272 -5.191719 -5.011010 -4.848515 
 -4.732331 -4.689521 -4.732331 -4.848515 -5.011010 -5.191719 
 -5.369272 -5.528520 -5.659896 -5.757223 -5.816978 -5.837063 
 -6.263013 -6.242493 -6.181465 -6.082003 -5.947647 -5.784363 
 -5.601557 -5.414777 -5.246096 -5.125025 -5.080457 -5.125025 
 -5.246096 -5.414777 -5.601557 -5.784363 -5.947647 -6.082003 
 -6.181465 -6.242493 -6.263013 -6.606066 -6.585228 -6.523220 
 -6.421976 -6.285088 -6.118538 -5.931674 -5.739825 -5.565962 
 -5.440461 -5.394187 -5.440461 -5.565962 -5.739825 -5.931674 
 -6.118538 -6.285088 -6.421976 -6.523220 -6.585228 -6.606066 
 -6.864728 -6.843626 -6.780811 -6.678235 -6.539447 -6.370324 
 -6.180418 -5.984838 -5.806695 -5.677835 -5.630067 -5.677835 
 -5.806695 -5.984838 -6.180418 -6.370324 -6.539447 -6.678235 
 -6.780811 -6.843626 -6.864728 -7.037833 -7.016514 -6.953192 
 -6.849740 -6.709609 -6.538725 -6.346612 -6.148526 -5.967568 
 -5.836273 -5.787535 -5.836273 -5.967568 -6.148526 -6.346612 
 -6.538725 -6.709609 -6.849740 -6.953192 -7.016514 -7.037833 
 -7.124523 -7.103177 -7.039575 -6.935645 -6.794874 -6.623098 
 -6.429877 -6.230428 -6.048153 -5.915703 -5.866348 -5.915703 
 -6.048153 -6.230428 -6.429877 -6.623098 -6.794874 -6.935645 
 -7.039575 -7.103177 -7.124523 -7.124522 -7.103177 -7.039574 
 -6.935645 -6.794874 -6.623097 -6.429876 -6.230428 -6.048153 
 -5.915703 -5.866348 -5.915703 -6.048153 -6.230428 -6.429876 
 -6.623097 -6.794874 -6.935645 -7.039574 -7.103177 -7.124522 
 -6.994467 -6.973257 -6.910092 -6.806808 -6.667027 -6.496580 
 -6.305021 -6.107593 -5.927424 -5.796625 -5.748145 -5.796625 
 -5.927424 -6.107593 -6.305021 -6.496580 -6.667027 -6.806808 
 -6.910092 -6.973257 -6.994467 -6.864727 -6.843625 -6.780810 
 -6.678235 -6.539446 -6.370323 -6.180417 -5.984837 -5.806694 
 -5.677834 -5.630066 -5.677834 -5.806694 -5.984837 -6.180417 
 -6.370323 -6.539446 -6.678235 -6.780810 -6.843625 -6.864727 
 -6.649128 -6.628213 -6.566066 -6.464603 -6.327395 -6.160390 
 -5.973124 -5.780740 -5.606011 -5.480080 -5.433385 -5.480080 
 -5.606011 -5.780740 -5.973124 -6.160390 -6.327395 -6.464603 
 -6.566066 -6.628213 -6.649128 -6.348617 -6.328017 -6.266727 
 -6.166806 -6.031814 -5.867699 -5.683993 -5.495980 -5.326049 
 -5.203905 -5.158755 -5.203905 -5.326049 -5.495980 -5.683993 
 -5.867699 -6.031814 -6.166806 -6.266727 -6.328017 -6.348617 
 -5.964500 -5.944284 -5.884212 -5.786247 -5.653928 -5.493452 
 -5.314422 -5.131818 -4.967583 -4.850038 -4.806904 -4.850038 
 -4.967583 -5.131818 -5.314422 -5.493452 -5.653928 -5.786247 
 -5.884212 -5.944284 -5.964500 -5.499051 -5.479299 -5.420500 
 -5.324836 -5.195791 -5.039868 -4.866106 -4.689753 -4.531989 
 -4.419509 -4.378293 -4.419509 -4.531989 -4.689753 -4.866106 
 -5.039868 -5.195791 -5.324836 -5.420500 -5.479299 -5.499051 
 -4.955005 -4.935720 -4.878504 -4.785615 -4.660548 -4.509488 
 -4.342043 -4.172734 -4.022091 -3.915370 -3.876578 -3.915370 
 -4.022091 -4.172734 -4.342043 -4.509488 -4.660548 -4.785615 
 -4.878504 -4.935720 -4.955005 -4.338585 -4.319951 -4.264793 
 -4.174850 -4.053744 -3.908463 -3.747949 -3.586214 -3.443070 
 -3.341889 -3.305175 -3.341889 -3.443070 -3.586214 -3.747949 
 -3.908463 -4.053744 -4.174850 -4.264793 -4.319951 -4.338585 
 -3.670431 -3.652211 -3.599059 -3.512519 -3.396748 -3.257443 
 -3.103848 -2.949554 -2.813118 -2.717406 -2.682676 -2.717406 
 -2.813118 -2.949554 -3.103848 -3.257443 -3.396748 -3.512519 
 -3.599059 -3.652211 -3.670431 -3.175944 -3.158485 -3.107202 
 -3.024199 -2.912534 -2.777555 -2.628328 -2.477728 -2.344233 
 -2.250110 -2.215876 -2.250110 -2.344233 -2.477728 -2.628328 
 -2.777555 -2.912534 -3.024199 -3.107202 -3.158485 -3.175944 
 -3.670436 -3.652215 -3.599064 -3.512524 -3.396753 -3.257448 
 -3.103853 -2.949560 -2.813124 -2.717411 -2.682682 -2.717411 
 -2.813124 -2.949560 -3.103853 -3.257448 -3.396753 -3.512524 
 -3.599064 -3.652215 -3.670436 -4.338589 -4.319955 -4.264798 
 -4.174855 -4.053749 -3.908468 -3.747954 -3.586219 -3.443075 
 -3.341894 -3.305180 -3.341894 -3.443075 -3.586219 -3.747954 
 -3.908468 -4.053749 -4.174855 -4.264798 -4.319955 -4.338589 
 -4.955008 -4.935722 -4.878506 -4.785618 -4.660551 -4.509491 
 -4.342045 -4.172736 -4.022094 -3.915372 -3.876580 -3.915372 
 -4.022094 -4.172736 -4.342045 -4.509491 -4.660551 -4.785618 
 -4.878506 -4.935722 -4.955008 -5.499053 -5.479301 -5.420503 
 -5.324839 -5.195793 -5.039871 -4.866107 -4.689755 -4.531991 
 -4.419511 -4.378295 -4.419511 -4.531991 -4.689755 -4.866107 
 -5.039871 -5.195793 -5.324839 -5.420503 -5.479301 -5.499053 
 -5.964502 -5.944286 -5.884214 -5.786249 -5.653930 -5.493455 
 -5.314426 -5.131821 -4.967587 -4.850042 -4.806908 -4.850042 
 -4.967587 -5.131821 -5.314426 -5.493455 -5.653930 -5.786249 
 -5.884214 -5.944286 -5.964502 -6.348619 -6.328019 -6.266729 
 -6.166808 -6.031816 -5.867701 -5.683996 -5.495982 -5.326051 
 -5.203908 -5.158758 -5.203908 -5.326051 -5.495982 -5.683996 
 -5.867701 -6.031816 -6.166808 -6.266729 -6.328019 -6.348619 
 -6.649130 -6.628215 -6.566067 -6.464605 -6.327396 -6.160392 
 -5.973126 -5.780742 -5.606013 -5.480082 -5.433387 -5.480082 
 -5.606013 -5.780742 -5.973126 -6.160392 -6.327396 -6.464605 
 -6.566067 -6.628215 -6.649130 -6.864728 -6.843626 -6.780811 
 -6.678236 -6.539447 -6.370324 -6.180418 -5.984839 -5.806696 
 -5.677836 -5.630068 -5.677836 -5.806696 -5.984839 -6.180418 
 -6.370324 -6.539447 -6.678236 -6.780811 -6.843626 -6.864728 
 -6.994468 -6.973257 -6.910092 -6.806808 -6.667028 -6.496580 
 -6.305022 -6.107594 -5.927425 -5.796626 -5.748145 -5.796626 
 -5.927425 -6.107594 -6.305022 -6.496580 -6.667028 -6.806808 
 -6.910092 -6.973257 -6.994468 -7.037833 -7.016514 -6.953192 
 -6.849740 -6.709609 -6.538725 -6.346612 -6.148526 -5.967568 
 -5.836273 -5.787535 -5.836273 -5.967568 -6.148526 -6.346612 
 -6.538725 -6.709609 -6.849740 -6.953192 -7.016514 -7.037833 
 -6.994467 -6.973257 -6.910092 -6.806808 -6.667027 -6.496580 
 -6.305021 -6.107593 -5.927424 -5.796625 -5.748145 -5.796625 
 -5.927424 -6.107593 -6.305021 -6.496580 -6.667027 -6.806808 
 -6.910092 -6.973257 -6.994467 -6.778367 -6.757351 -6.694812 
 -6.592721 -6.454548 -6.286259 -6.097461 -5.903039 -5.726365 
 -5.598628 -5.551509 -5.598628 -5.726365 -5.903039 -6.097461 
 -6.286259 -6.454548 -6.592721 -6.694812 -6.757351 -6.778367 
 -6.606065 -6.585227 -6.523219 -6.421975 -6.285087 -6.118537 
 -5.931673 -5.739824 -5.565961 -5.440460 -5.394186 -5.440460 
 -5.565961 -5.739824 -5.931673 -6.118537 -6.285087 -6.421975 
 -6.523219 -6.585227 -6.606065 -6.348617 -6.328017 -6.266727 
 -6.166806 -6.031814 -5.867699 -5.683993 -5.495980 -5.326049 
 -5.203905 -5.158755 -5.203905 -5.326049 -5.495980 -5.683993 
 -5.867699 -6.031814 -6.166806 -6.266727 -6.328017 -6.348617 
 -6.007077 -5.986818 -5.926607 -5.828411 -5.695850 -5.534955 
 -5.355584 -5.172151 -5.007317 -4.889422 -4.845902 -4.889422 
 -5.007317 -5.172151 -5.355584 -5.534955 -5.695850 -5.828411 
 -5.926607 -5.986818 -6.007077 -5.583409 -5.563579 -5.504645 
 -5.408480 -5.278889 -5.122131 -4.947360 -4.769939 -4.610978 
 -4.497659 -4.456030 -4.497659 -4.610978 -4.769939 -4.947360 
 -5.122131 -5.278889 -5.408480 -5.504645 -5.563579 -5.583409 
 -5.080006 -5.060554 -5.003042 -4.909532 -4.783501 -4.631365 
 -4.462734 -4.291571 -4.139359 -4.031384 -3.991782 -4.031384 
 -4.139359 -4.291571 -4.462734 -4.631365 -4.783501 -4.909532 
 -5.003042 -5.060554 -5.080006 -4.501227 -4.482497 -4.426809 
 -4.336057 -4.214340 -4.067071 -3.904858 -3.741293 -3.596022 
 -3.493734 -3.456425 -3.493734 -3.596022 -3.741293 -3.904858 
 -4.067071 -4.214340 -4.336057 -4.426809 -4.482497 -4.501227 
 -3.857732 -3.839700 -3.785471 -3.698171 -3.580764 -3.439742 
 -3.284260 -3.127899 -2.990100 -2.893301 -2.858121 -2.893301 
 -2.990100 -3.127899 -3.284260 -3.439742 -3.580764 -3.698171 
 -3.785471 -3.839700 -3.857732 -3.205137 -3.187559 -3.136305 
 -3.052302 -2.939783 -2.804300 -2.654979 -2.505268 -2.372953 
 -2.280109 -2.246437 -2.280109 -2.372953 -2.505268 -2.654979 
 -2.804300 -2.939783 -3.052302 -3.136305 -3.187559 -3.205137 
 -3.205143 -3.187565 -3.136311 -3.052308 -2.939789 -2.804306 
 -2.654985 -2.505275 -2.372960 -2.280117 -2.246444 -2.280117 
 -2.372960 -2.505275 -2.654985 -2.804306 -2.939789 -3.052308 
 -3.136311 -3.187565 -3.205143 -3.857739 -3.839706 -3.785477 
 -3.698177 -3.580771 -3.439749 -3.284268 -3.127906 -2.990108 
 -2.893309 -2.858130 -2.893309 -2.990108 -3.127906 -3.284268 
 -3.439749 -3.580771 -3.698177 -3.785477 -3.839706 -3.857739 
 -4.501231 -4.482502 -4.426813 -4.336062 -4.214345 -4.067076 
 -3.904863 -3.741298 -3.596027 -3.493739 -3.456430 -3.493739 
 -3.596027 -3.741298 -3.904863 -4.067076 -4.214345 -4.336062 
 -4.426813 -4.482502 -4.501231 -5.080009 -5.060557 -5.003045 
 -4.909535 -4.783504 -4.631369 -4.462738 -4.291575 -4.139363 
 -4.031388 -3.991786 -4.031388 -4.139363 -4.291575 -4.462738 
 -4.631369 -4.783504 -4.909535 -5.003045 -5.060557 -5.080009 
 -5.583413 -5.563582 -5.504648 -5.408483 -5.278892 -5.122135 
 -4.947363 -4.769942 -4.610982 -4.497662 -4.456034 -4.497662 
 -4.610982 -4.769942 -4.947363 -5.122135 -5.278892 -5.408483 
 -5.504648 -5.563582 -5.583413 -6.007080 -5.986821 -5.926610 
 -5.828415 -5.695854 -5.534959 -5.355588 -5.172155 -5.007321 
 -4.889427 -4.845907 -4.889427 -5.007321 -5.172155 -5.355588 
 -5.534959 -5.695854 -5.828415 -5.926610 -5.986821 -6.007080 
 -6.348620 -6.328020 -6.266730 -6.166809 -6.031817 -5.867702 
 -5.683996 -5.495983 -5.326052 -5.203909 -5.158759 -5.203909 
 -5.326052 -5.495983 -5.683996 -5.867702 -6.031817 -6.166809 
 -6.266730 -6.328020 -6.348620 -6.606067 -6.585229 -6.523221 
 -6.421977 -6.285090 -6.118539 -5.931676 -5.739826 -5.565964 
 -5.440462 -5.394189 -5.440462 -5.565964 -5.739826 -5.931676 
 -6.118539 -6.285090 -6.421977 -6.523221 -6.585229 -6.606067 
 -6.778368 -6.757352 -6.694813 -6.592722 -6.454549 -6.286260 
 -6.097462 -5.903041 -5.726367 -5.598630 -5.551511 -5.598630 
 -5.726367 -5.903041 -6.097462 -6.286260 -6.454549 -6.592722 
 -6.694813 -6.757352 -6.778368 -6.864728 -6.843626 -6.780811 
 -6.678236 -6.539447 -6.370324 -6.180418 -5.984839 -5.806696 
 -5.677836 -5.630068 -5.677836 -5.806696 -5.984839 -6.180418 
 -6.370324 -6.539447 -6.678236 -6.780811 -6.843626 -6.864728 
 -6.864728 -6.843626 -6.780811 -6.678235 -6.539447 -6.370324 
 -6.180418 -5.984838 -5.806695 -5.677835 -5.630067 -5.677835 
 -5.806695 -5.984838 -6.180418 -6.370324 -6.539447 -6.678235 
 -6.780811 -6.843626 -6.864728 -6.778367 -6.757351 -6.694812 
 -6.592721 -6.454548 -6.286259 -6.097461 -5.903039 -5.726365 
 -5.598628 -5.551509 -5.598628 -5.726365 -5.903039 -6.097461 
 -6.286259 -6.454548 -6.592721 -6.694812 -6.757351 -6.778367 
 -6.477185 -6.456465 -6.394842 -6.294253 -6.158336 -5.993027 
 -5.807569 -5.617626 -5.445889 -5.322049 -5.276339 -5.322049 
 -5.445889 -5.617626 -5.807569 -5.993027 -6.158336 -6.294253 
 -6.394842 -6.456465 -6.477185 -6.263012 -6.242492 -6.181464 
 -6.082002 -5.947646 -5.784362 -5.601556 -5.414776 -5.246094 
 -5.125023 -5.080455 -5.125023 -5.246094 -5.414776 -5.601556 
 -5.784362 -5.947646 -6.082002 -6.181464 -6.242492 -6.263012 
 -5.964500 -5.944284 -5.884212 -5.786247 -5.653928 -5.493452 
 -5.314422 -5.131818 -4.967583 -4.850038 -4.806904 -4.850038 
 -4.967583 -5.131818 -5.314422 -5.493452 -5.653928 -5.786247 
 -5.884212 -5.944284 -5.964500 -5.583409 -5.563579 -5.504645 
 -5.408480 -5.278889 -5.122131 -4.947360 -4.769939 -4.610978 
 -4.497659 -4.456030 -4.497659 -4.610978 -4.769939 -4.947360 
 -5.122131 -5.278889 -5.408480 -5.504645 -5.563579 -5.583409 
 -5.121699 -5.102194 -5.044682 -4.950965 -4.824706 -4.672212 
 -4.502818 -4.331574 -4.178737 -4.069937 -4.030308 -4.069937 
 -4.178737 -4.331574 -4.502818 -4.672212 -4.824706 -4.950965 
 -5.044682 -5.102194 -5.121699 -4.583219 -4.564435 -4.508463 
 -4.417253 -4.294892 -4.147262 -3.983770 -3.818973 -3.672969 
 -3.569987 -3.532503 -3.569987 -3.672969 -3.818973 -3.983770 
 -4.147262 -4.294892 -4.417253 -4.508463 -4.564435 -4.583219 
 -3.974755 -3.956447 -3.902187 -3.813960 -3.695854 -3.553603 
 -3.396621 -3.239450 -3.100506 -3.002984 -2.967557 -3.002984 
 -3.100506 -3.239450 -3.396621 -3.553603 -3.695854 -3.813960 
 -3.902187 -3.956447 -3.974755 -3.317145 -3.299103 -3.246966 
 -3.162196 -3.048268 -2.912086 -2.761955 -2.611737 -2.479366 
 -2.386795 -2.353219 -2.386795 -2.479366 -2.611737 -2.761955 
 -2.912086 -3.048268 -3.162196 -3.246966 -3.299103 -3.317145 
 -2.832098 -2.815248 -2.764813 -2.682523 -2.572720 -2.440122 
 -2.293990 -2.147265 -2.017427 -1.926233 -1.893105 -1.926233 
 -2.017427 -2.147265 -2.293990 -2.440122 -2.572720 -2.682523 
 -2.764813 -2.815248 -2.832098 -3.317155 -3.299112 -3.246975 
 -3.162205 -3.048277 -2.912096 -2.761966 -2.611748 -2.479377 
 -2.386807 -2.353230 -2.386807 -2.479377 -2.611748 -2.761966 
 -2.912096 -3.048277 -3.162205 -3.246975 -3.299112 -3.317155 
 -3.974762 -3.956454 -3.902194 -3.813967 -3.695862 -3.553611 
 -3.396629 -3.239457 -3.100514 -3.002992 -2.967565 -3.002992 
 -3.100514 -3.239457 -3.396629 -3.553611 -3.695862 -3.813967 
 -3.902194 -3.956454 -3.974762 -4.583224 -4.564440 -4.508469 
 -4.417259 -4.294898 -4.147268 -3.983776 -3.818980 -3.672975 
 -3.569994 -3.532510 -3.569994 -3.672975 -3.818980 -3.983776 
 -4.147268 -4.294898 -4.417259 -4.508469 -4.564440 -4.583224 
 -5.121703 -5.102198 -5.044686 -4.950969 -4.824710 -4.672217 
 -4.502823 -4.331579 -4.178743 -4.069943 -4.030314 -4.069943 
 -4.178743 -4.331579 -4.502823 -4.672217 -4.824710 -4.950969 
 -5.044686 -5.102198 -5.121703 -5.583414 -5.563583 -5.504649 
 -5.408484 -5.278894 -5.122136 -4.947364 -4.769943 -4.610983 
 -4.497663 -4.456035 -4.497663 -4.610983 -4.769943 -4.947364 
 -5.122136 -5.278894 -5.408484 -5.504649 -5.563583 -5.583414 
 -5.964504 -5.944288 -5.884215 -5.786251 -5.653932 -5.493457 
 -5.314427 -5.131823 -4.967589 -4.850044 -4.806910 -4.850044 
 -4.967589 -5.131823 -5.314427 -5.493457 -5.653932 -5.786251 
 -5.884215 -5.944288 -5.964504 -6.263015 -6.242495 -6.181467 
 -6.082005 -5.947649 -5.784365 -5.601560 -5.414780 -5.246098 
 -5.125028 -5.080460 -5.125028 -5.246098 -5.414780 -5.601560 
 -5.784365 -5.947649 -6.082005 -6.181467 -6.242495 -6.263015 
 -6.477187 -6.456467 -6.394844 -6.294255 -6.158338 -5.993030 
 -5.807571 -5.617628 -5.445892 -5.322052 -5.276342 -5.322052 
 -5.445892 -5.617628 -5.807571 -5.993030 -6.158338 -6.294255 
 -6.394844 -6.456467 -6.477187 -6.606067 -6.585229 -6.523221 
 -6.421977 -6.285090 -6.118539 -5.931676 -5.739826 -5.565964 
 -5.440462 -5.394189 -5.440462 -5.565964 -5.739826 -5.931676 
 -6.118539 -6.285090 -6.421977 -6.523221 -6.585229 -6.606067 
 -6.649130 -6.628215 -6.566067 -6.464605 -6.327396 -6.160392 
 -5.973126 -5.780742 -5.606013 -5.480082 -5.433387 -5.480082 
 -5.606013 -5.780742 -5.973126 -6.160392 -6.327396 -6.464605 
 -6.566067 -6.628215 -6.649130 -6.606066 -6.585228 -6.523220 
 -6.421976 -6.285088 -6.118538 -5.931674 -5.739825 -5.565962 
 -5.440461 -5.394187 -5.440461 -5.565962 -5.739825 -5.931674 
 -6.118538 -6.285088 -6.421976 -6.523220 -6.585228 -6.606066 
 -6.477185 -6.456465 -6.394842 -6.294253 -6.158336 -5.993027 
 -5.807569 -5.617626 -5.445889 -5.322049 -5.276339 -5.322049 
 -5.445889 -5.617626 -5.807569 -5.993027 -6.158336 -6.294253 
 -6.394842 -6.456465 -6.477185 -6.092252 -6.071915 -6.011354 
 -5.912727 -5.779611 -5.617969 -5.437172 -5.252891 -5.086802 
 -4.967634 -4.923923 -4.967634 -5.086802 -5.252891 -5.437172 
 -5.617969 -5.779611 -5.912727 -6.011354 -6.071915 -6.092252 
 -5.837062 -5.816977 -5.757222 -5.659895 -5.528519 -5.369270 
 -5.191717 -5.011009 -4.848513 -4.732328 -4.689519 -4.732328 
 -4.848513 -5.011009 -5.191717 -5.369270 -5.528519 -5.659895 
 -5.757222 -5.816977 -5.837062 -5.499051 -5.479299 -5.420500 
 -5.324836 -5.195791 -5.039868 -4.866106 -4.689753 -4.531989 
 -4.419509 -4.378293 -4.419509 -4.531989 -4.689753 -4.866106 
 -5.039868 -5.195791 -5.324836 -5.420500 -5.479299 -5.499051 
 -5.080006 -5.060554 -5.003042 -4.909532 -4.783501 -4.631365 
 -4.462734 -4.291571 -4.139359 -4.031384 -3.991782 -4.031384 
 -4.139359 -4.291571 -4.462734 -4.631365 -4.783501 -4.909532 
 -5.003042 -5.060554 -5.080006 -4.583219 -4.564435 -4.508463 
 -4.417253 -4.294892 -4.147262 -3.983770 -3.818973 -3.672969 
 -3.569987 -3.532503 -3.569987 -3.672969 -3.818973 -3.983770 
 -4.147262 -4.294892 -4.417253 -4.508463 -4.564435 -4.583219 
 -4.014046 -3.995896 -3.941460 -3.853294 -3.734945 -3.591732 
 -3.434802 -3.277111 -3.137733 -3.039945 -3.004379 -3.039945 
 -3.137733 -3.277111 -3.434802 -3.591732 -3.734945 -3.853294 
 -3.941460 -3.995896 -4.014046 -3.384373 -3.366400 -3.313694 
 -3.228289 -3.114288 -2.977303 -2.826788 -2.675999 -2.543482 
 -2.450710 -2.417111 -2.450710 -2.543482 -2.675999 -2.826788 
 -2.977303 -3.114288 -3.228289 -3.313694 -3.366400 -3.384373 
 -2.746261 -2.729132 -2.678989 -2.597074 -2.487300 -2.355458 
 -2.210745 -2.065831 -1.938534 -1.849425 -1.817197 -1.849425 
 -1.938534 -2.065831 -2.210745 -2.355458 -2.487300 -2.597074 
 -2.678989 -2.729132 -2.746261 -2.746271 -2.729141 -2.678999 
 -2.597085 -2.487310 -2.355469 -2.210756 -2.065843 -1.938547 
 -1.849439 -1.817210 -1.849439 -1.938547 -2.065843 -2.210756 
 -2.355469 -2.487310 -2.597085 -2.678999 -2.729141 -2.746271 
 -3.384384 -3.366410 -3.313704 -3.228299 -3.114299 -2.977314 
 -2.826800 -2.676011 -2.543494 -2.450723 -2.417123 -2.450723 
 -2.543494 -2.676011 -2.826800 -2.977314 -3.114299 -3.228299 
 -3.313704 -3.366410 -3.384384 -4.014055 -3.995904 -3.941468 
 -3.853302 -3.734954 -3.591741 -3.434811 -3.277121 -3.137743 
 -3.039955 -3.004389 -3.039955 -3.137743 -3.277121 -3.434811 
 -3.591741 -3.734954 -3.853302 -3.941468 -3.995904 -4.014055 
 -4.583225 -4.564441 -4.508470 -4.417260 -4.294899 -4.147270 
 -3.983778 -3.818981 -3.672977 -3.569996 -3.532512 -3.569996 
 -3.672977 -3.818981 -3.983778 -4.147270 -4.294899 -4.417260 
 -4.508470 -4.564441 -4.583225 -5.080011 -5.060559 -5.003047 
 -4.909537 -4.783506 -4.631371 -4.462740 -4.291577 -4.139366 
 -4.031391 -3.991790 -4.031391 -4.139366 -4.291577 -4.462740 
 -4.631371 -4.783506 -4.909537 -5.003047 -5.060559 -5.080011 
 -5.499056 -5.479304 -5.420506 -5.324841 -5.195796 -5.039874 
 -4.866110 -4.689759 -4.531994 -4.419515 -4.378298 -4.419515 
 -4.531994 -4.689759 -4.866110 -5.039874 -5.195796 -5.324841 
 -5.420506 -5.479304 -5.499056 -5.837066 -5.816981 -5.757227 
 -5.659899 -5.528523 -5.369275 -5.191722 -5.011014 -4.848519 
 -4.732335 -4.689525 -4.732335 -4.848519 -5.011014 -5.191722 
 -5.369275 -5.528523 -5.659899 -5.757227 -5.816981 -5.837066 
 -6.092256 -6.071918 -6.011357 -5.912731 -5.779614 -5.617972 
 -5.437176 -5.252895 -5.086806 -4.967639 -4.923927 -4.967639 
 -5.086806 -5.252895 -5.437176 -5.617972 -5.779614 -5.912731 
 -6.011357 -6.071918 -6.092256 -6.263015 -6.242495 -6.181467 
 -6.082005 -5.947649 -5.784365 -5.601560 -5.414780 -5.246098 
 -5.125028 -5.080460 -5.125028 -5.246098 -5.414780 -5.601560 
 -5.784365 -5.947649 -6.082005 -6.181467 -6.242495 -6.263015 
 -6.348620 -6.328020 -6.266730 -6.166809 -6.031817 -5.867702 
 -5.683996 -5.495983 -5.326052 -5.203909 -5.158759 -5.203909 
 -5.326052 -5.495983 -5.683996 -5.867702 -6.031817 -6.166809 
 -6.266730 -6.328020 -6.348620 -6.348619 -6.328019 -6.266729 
 -6.166808 -6.031816 -5.867701 -5.683996 -5.495982 -5.326051 
 -5.203908 -5.158758 -5.203908 -5.326051 -5.495982 -5.683996 
 -5.867701 -6.031816 -6.166808 -6.266729 -6.328019 -6.348619 
 -6.263013 -6.242493 -6.181465 -6.082003 -5.947647 -5.784363 
 -5.601557 -5.414777 -5.246096 -5.125025 -5.080457 -5.125025 
 -5.246096 -5.414777 -5.601557 -5.784363 -5.947647 -6.082003 
 -6.181465 -6.242493 -6.263013 -6.092252 -6.071915 -6.011354 
 -5.912727 -5.779611 -5.617969 -5.437172 -5.252891 -5.086802 
 -4.967634 -4.923923 -4.967634 -5.086802 -5.252891 -5.437172 
 -5.617969 -5.779611 -5.912727 -6.011354 -6.071915 -6.092252 
 -5.625314 -5.605460 -5.546394 -5.449994 -5.320254 -5.162846 
 -4.988044 -4.810154 -4.650673 -4.536614 -4.494843 -4.536614 
 -4.650673 -4.810154 -4.988044 -5.162846 -5.320254 -5.449994 
 -5.546394 -5.605460 -5.625314 -5.330789 -5.311190 -5.252922 
 -5.158003 -5.030206 -4.875545 -4.704094 -4.530097 -4.374271 
 -4.263691 -4.223254 -4.263691 -4.374271 -4.530097 -4.704094 
 -4.875545 -5.030206 -5.158003 -5.252922 -5.311190 -5.330789 
 -4.955005 -4.935720 -4.878504 -4.785615 -4.660548 -4.509488 
 -4.342043 -4.172734 -4.022091 -3.915370 -3.876578 -3.915370 
 -4.022091 -4.172734 -4.342043 -4.509488 -4.660548 -4.785615 
 -4.878504 -4.935720 -4.955005 -4.501227 -4.482497 -4.426809 
 -4.336057 -4.214340 -4.067071 -3.904858 -3.741293 -3.596022 
 -3.493734 -3.456425 -3.493734 -3.596022 -3.741293 -3.904858 
 -4.067071 -4.214340 -4.336057 -4.426809 -4.482497 -4.501227 
 -3.974755 -3.956447 -3.902187 -3.813960 -3.695854 -3.553603 
 -3.396621 -3.239450 -3.100506 -3.002984 -2.967557 -3.002984 
 -3.100506 -3.239450 -3.396621 -3.553603 -3.695854 -3.813960 
 -3.902187 -3.956447 -3.974755 -3.384373 -3.366400 -3.313694 
 -3.228289 -3.114288 -2.977303 -2.826788 -2.675999 -2.543482 
 -2.450710 -2.417111 -2.450710 -2.543482 -2.675999 -2.826788 
 -2.977303 -3.114288 -3.228289 -3.313694 -3.366400 -3.384373 
 -2.751102 -2.734961 -2.684428 -2.602321 -2.492308 -2.360562 
 -2.216056 -2.071628 -1.944822 -1.856350 -1.824680 -1.856350 
 -1.944822 -2.071628 -2.216056 -2.360562 -2.492308 -2.602321 
 -2.684428 -2.734961 -2.751102 -2.260034 -2.243726 -2.194802 
 -2.115245 -2.008370 -1.880071 -1.739187 -1.598287 -1.474663 
 -1.388203 -1.356797 -1.388203 -1.474663 -1.598287 -1.739187 
 -1.880071 -2.008370 -2.115245 -2.194802 -2.243726 -2.260034 
 -2.751114 -2.734974 -2.684441 -2.602334 -2.492321 -2.360576 
 -2.216071 -2.071644 -1.944839 -1.856368 -1.824697 -1.856368 
 -1.944839 -2.071644 -2.216071 -2.360576 -2.492321 -2.602334 
 -2.684441 -2.734974 -2.751114 -3.384386 -3.366412 -3.313705 
 -3.228300 -3.114300 -2.977315 -2.826801 -2.676012 -2.543496 
 -2.450725 -2.417126 -2.450725 -2.543496 -2.676012 -2.826801 
 -2.977315 -3.114300 -3.228300 -3.313705 -3.366412 -3.384386 
 -3.974764 -3.956456 -3.902196 -3.813969 -3.695864 -3.553614 