 BEGIN_INFO
 #
 # this is a Band-XCRYSDEN-Structure-File
 # aimed at Visualization of Fermi Surface
 #
 # Case:   ***.bxsf
 #
 Fermi Energy: 5.2288
 END_INFO
 BEGIN_BLOCK_BANDGRID_3D
 band_energies
 BANDGRID_3D_BANDS
  16
  33   33    17
  0.000000  0.000000  0.000000
  0.298863  0.172548  0.000000
  0.000000  0.345097  0.000000
  0.000000  0.000000  0.164380
 BAND:  1  
 -30.007894 -30.007901 -30.007904 -30.007926 -30.007950 -30.007959 
 -30.007973 -30.007968 -30.007973 -30.007968 -30.007973 -30.007959 
 -30.007950 -30.007926 -30.007904 -30.007901 -30.007894 -30.007359 
 -30.007364 -30.007373 -30.007391 -30.007413 -30.007423 -30.007439 
 -30.007437 -30.007441 -30.007438 -30.007438 -30.007423 -30.007413 
 -30.007392 -30.007372 -30.007364 -30.007359 -30.005797 -30.005800 
 -30.005813 -30.005826 -30.005847 -30.005861 -30.005870 -30.005877 
 -30.005884 -30.005876 -30.005869 -30.005861 -30.005845 -30.005831 
 -30.005814 -30.005801 -30.005797 -30.016493 -30.016496 -30.016494 
 -30.016492 -30.016491 -30.016486 -30.016486 -30.016483 -30.016483 
 -30.016481 -30.016484 -30.016486 -30.016491 -30.016493 -30.016494 
 -30.016495 -30.016493 -30.034768 -30.034772 -30.034773 -30.034771 
 -30.034766 -30.034767 -30.034764 -30.034770 -30.034771 -30.034770 
 -30.034764 -30.034767 -30.034766 -30.034771 -30.034773 -30.034772 
 -30.034768 -30.056967 -30.056960 -30.056954 -30.056948 -30.056953 
 -30.056957 -30.056957 -30.056958 -30.056959 -30.056958 -30.056958 
 -30.056958 -30.056954 -30.056948 -30.056953 -30.056959 -30.056967 
 -30.082143 -30.082147 -30.082154 -30.082158 -30.082154 -30.082150 
 -30.082152 -30.082151 -30.082148 -30.082152 -30.082153 -30.082151 
 -30.082154 -30.082156 -30.082152 -30.082146 -30.082143 -30.109341 
 -30.109342 -30.109338 -30.109334 -30.109333 -30.109333 -30.109334 
 -30.109332 -30.109329 -30.109332 -30.109337 -30.109333 -30.109333 
 -30.109334 -30.109340 -30.109343 -30.109341 -30.137452 -30.137454 
 -30.137454 -30.137448 -30.137456 -30.137455 -30.137450 -30.137447 
 -30.137449 -30.137446 -30.137448 -30.137453 -30.137457 -30.137451 
 -30.137455 -30.137456 -30.137452 -30.165408 -30.165405 -30.165403 
 -30.165403 -30.165397 -30.165397 -30.165400 -30.165401 -30.165396 
 -30.165402 -30.165401 -30.165399 -30.165397 -30.165403 -30.165403 
 -30.165405 -30.165408 -30.192147 -30.192140 -30.192136 -30.192136 
 -30.192137 -30.192131 -30.192123 -30.192121 -30.192120 -30.192122 
 -30.192126 -30.192135 -30.192140 -30.192139 -30.192137 -30.192141 
 -30.192147 -30.216630 -30.216636 -30.216637 -30.216636 -30.216631 
 -30.216632 -30.216627 -30.216635 -30.216644 -30.216636 -30.216631 
 -30.216635 -30.216635 -30.216639 -30.216638 -30.216636 -30.216630 
 -30.238014 -30.238017 -30.238014 -30.238010 -30.238012 -30.238012 
 -30.238017 -30.238013 -30.238009 -30.238015 -30.238020 -30.238013 
 -30.238014 -30.238012 -30.238016 -30.238020 -30.238014 -30.255492 
 -30.255494 -30.255493 -30.255497 -30.255496 -30.255490 -30.255487 
 -30.255488 -30.255485 -30.255487 -30.255488 -30.255493 -30.255498 
 -30.255499 -30.255495 -30.255493 -30.255492 -30.268441 -30.268442 
 -30.268441 -30.268435 -30.268433 -30.268432 -30.268431 -30.268433 
 -30.268439 -30.268433 -30.268431 -30.268433 -30.268435 -30.268435 
 -30.268441 -30.268441 -30.268441 -30.276400 -30.276403 -30.276400 
 -30.276394 -30.276390 -30.276390 -30.276389 -30.276384 -30.276381 
 -30.276385 -30.276389 -30.276391 -30.276392 -30.276393 -30.276401 
 -30.276405 -30.276400 -30.279093 -30.279092 -30.279083 -30.279084 
 -30.279078 -30.279070 -30.279066 -30.279067 -30.279069 -30.279067 
 -30.279066 -30.279070 -30.279078 -30.279084 -30.279083 -30.279092 
 -30.279093 -30.276400 -30.276405 -30.276401 -30.276393 -30.276392 
 -30.276391 -30.276389 -30.276385 -30.276381 -30.276384 -30.276389 
 -30.276390 -30.276390 -30.276394 -30.276400 -30.276403 -30.276400 
 -30.268441 -30.268441 -30.268441 -30.268435 -30.268435 -30.268433 
 -30.268431 -30.268433 -30.268439 -30.268433 -30.268431 -30.268432 
 -30.268433 -30.268435 -30.268441 -30.268442 -30.268441 -30.255492 
 -30.255493 -30.255495 -30.255499 -30.255498 -30.255493 -30.255488 
 -30.255487 -30.255485 -30.255488 -30.255487 -30.255490 -30.255496 
 -30.255497 -30.255493 -30.255494 -30.255492 -30.238014 -30.238020 
 -30.238016 -30.238012 -30.238014 -30.238013 -30.238020 -30.238015 
 -30.238009 -30.238013 -30.238017 -30.238012 -30.238012 -30.238010 
 -30.238014 -30.238017 -30.238014 -30.216630 -30.216636 -30.216638 
 -30.216639 -30.216635 -30.216635 -30.216631 -30.216636 -30.216644 
 -30.216635 -30.216627 -30.216632 -30.216631 -30.216636 -30.216637 
 -30.216636 -30.216630 -30.192147 -30.192141 -30.192137 -30.192139 
 -30.192140 -30.192135 -30.192126 -30.192122 -30.192120 -30.192121 
 -30.192123 -30.192131 -30.192137 -30.192136 -30.192136 -30.192140 
 -30.192147 -30.165408 -30.165405 -30.165403 -30.165403 -30.165397 
 -30.165399 -30.165401 -30.165402 -30.165396 -30.165401 -30.165400 
 -30.165397 -30.165397 -30.165403 -30.165403 -30.165405 -30.165408 
 -30.137452 -30.137456 -30.137455 -30.137451 -30.137457 -30.137453 
 -30.137448 -30.137446 -30.137449 -30.137447 -30.137450 -30.137455 
 -30.137456 -30.137448 -30.137454 -30.137454 -30.137452 -30.109341 
 -30.109343 -30.109340 -30.109334 -30.109333 -30.109333 -30.109337 
 -30.109332 -30.109329 -30.109332 -30.109334 -30.109333 -30.109333 
 -30.109334 -30.109338 -30.109342 -30.109341 -30.082143 -30.082146 
 -30.082152 -30.082156 -30.082154 -30.082151 -30.082153 -30.082152 
 -30.082148 -30.082151 -30.082152 -30.082150 -30.082154 -30.082158 
 -30.082154 -30.082147 -30.082143 -30.056967 -30.056959 -30.056953 
 -30.056948 -30.056954 -30.056958 -30.056958 -30.056958 -30.056959 
 -30.056958 -30.056957 -30.056957 -30.056953 -30.056948 -30.056954 
 -30.056960 -30.056967 -30.034768 -30.034772 -30.034773 -30.034771 
 -30.034766 -30.034767 -30.034764 -30.034770 -30.034771 -30.034770 
 -30.034764 -30.034767 -30.034766 -30.034771 -30.034773 -30.034772 
 -30.034768 -30.016493 -30.016495 -30.016494 -30.016493 -30.016491 
 -30.016486 -30.016484 -30.016481 -30.016483 -30.016483 -30.016486 
 -30.016486 -30.016491 -30.016492 -30.016494 -30.016496 -30.016493 
 -30.005797 -30.005801 -30.005814 -30.005831 -30.005845 -30.005861 
 -30.005869 -30.005876 -30.005884 -30.005877 -30.005870 -30.005861 
 -30.005847 -30.005826 -30.005813 -30.005800 -30.005797 -30.007359 
 -30.007364 -30.007372 -30.007392 -30.007413 -30.007423 -30.007438 
 -30.007438 -30.007441 -30.007437 -30.007439 -30.007423 -30.007413 
 -30.007391 -30.007373 -30.007364 -30.007359 -30.007894 -30.007901 
 -30.007904 -30.007926 -30.007950 -30.007959 -30.007973 -30.007968 
 -30.007973 -30.007968 -30.007973 -30.007959 -30.007950 -30.007926 
 -30.007904 -30.007901 -30.007894 -30.007359 -30.007364 -30.007372 
 -30.007392 -30.007413 -30.007423 -30.007438 -30.007438 -30.007441 
 -30.007437 -30.007439 -30.007423 -30.007413 -30.007391 -30.007373 
 -30.007364 -30.007359 -30.006301 -30.006307 -30.006318 -30.006336 
 -30.006350 -30.006367 -30.006377 -30.006382 -30.006387 -30.006382 
 -30.006377 -30.006367 -30.006350 -30.006336 -30.006318 -30.006307 
 -30.006301 -30.011003 -30.010999 -30.010994 -30.010990 -30.010990 
 -30.010993 -30.010991 -30.010992 -30.010993 -30.010992 -30.010989 
 -30.010992 -30.010991 -30.010990 -30.010994 -30.011000 -30.011003 
 -30.026872 -30.026870 -30.026873 -30.026874 -30.026871 -30.026866 
 -30.026866 -30.026865 -30.026863 -30.026864 -30.026867 -30.026866 
 -30.026870 -30.026874 -30.026873 -30.026869 -30.026872 -30.046994 
 -30.046994 -30.046990 -30.046986 -30.046987 -30.046990 -30.046987 
 -30.046989 -30.046990 -30.046989 -30.046989 -30.046991 -30.046987 
 -30.046986 -30.046990 -30.046994 -30.046994 -30.070549 -30.070551 
 -30.070549 -30.070551 -30.070553 -30.070548 -30.070550 -30.070545 
 -30.070542 -30.070545 -30.070550 -30.070550 -30.070554 -30.070552 
 -30.070548 -30.070550 -30.070549 -30.096585 -30.096587 -30.096587 
 -30.096588 -30.096585 -30.096583 -30.096587 -30.096589 -30.096587 
 -30.096590 -30.096587 -30.096583 -30.096584 -30.096587 -30.096587 
 -30.096587 -30.096585 -30.124091 -30.124087 -30.124082 -30.124077 
 -30.124079 -30.124079 -30.124077 -30.124079 -30.124085 -30.124081 
 -30.124079 -30.124079 -30.124079 -30.124078 -30.124084 -30.124088 
 -30.124091 -30.151950 -30.151952 -30.151957 -30.151956 -30.151953 
 -30.151951 -30.151948 -30.151948 -30.151948 -30.151948 -30.151947 
 -30.151951 -30.151954 -30.151956 -30.151957 -30.151952 -30.151950 
 -30.179145 -30.179141 -30.179136 -30.179135 -30.179128 -30.179128 
 -30.179131 -30.179126 -30.179124 -30.179128 -30.179133 -30.179130 
 -30.179131 -30.179137 -30.179136 -30.179141 -30.179145 -30.204603 
 -30.204606 -30.204605 -30.204603 -30.204605 -30.204600 -30.204597 
 -30.204596 -30.204599 -30.204598 -30.204600 -30.204604 -30.204609 
 -30.204606 -30.204608 -30.204606 -30.204603 -30.227407 -30.227410 
 -30.227411 -30.227404 -30.227405 -30.227405 -30.227407 -30.227410 
 -30.227408 -30.227411 -30.227408 -30.227407 -30.227409 -30.227408 
 -30.227413 -30.227412 -30.227407 -30.246727 -30.246724 -30.246724 
 -30.246727 -30.246727 -30.246727 -30.246724 -30.246718 -30.246714 
 -30.246719 -30.246724 -30.246730 -30.246730 -30.246729 -30.246726 
 -30.246727 -30.246727 -30.261851 -30.261847 -30.261845 -30.261848 
 -30.261844 -30.261841 -30.261839 -30.261841 -30.261850 -30.261842 
 -30.261841 -30.261843 -30.261846 -30.261849 -30.261844 -30.261846 
 -30.261851 -30.272244 -30.272245 -30.272245 -30.272237 -30.272233 
 -30.272236 -30.272233 -30.272226 -30.272226 -30.272227 -30.272233 
 -30.272236 -30.272233 -30.272237 -30.272245 -30.272245 -30.272244 
 -30.277536 -30.277536 -30.277530 -30.277529 -30.277525 -30.277516 
 -30.277516 -30.277520 -30.277514 -30.277519 -30.277515 -30.277517 
 -30.277526 -30.277529 -30.277531 -30.277536 -30.277536 -30.277536 
 -30.277536 -30.277531 -30.277529 -30.277526 -30.277517 -30.277515 
 -30.277519 -30.277514 -30.277520 -30.277516 -30.277517 -30.277526 
 -30.277529 -30.277530 -30.277536 -30.277536 -30.272244 -30.272245 
 -30.272246 -30.272237 -30.272234 -30.272237 -30.272233 -30.272227 
 -30.272226 -30.272226 -30.272233 -30.272237 -30.272233 -30.272237 
 -30.272245 -30.272245 -30.272244 -30.261852 -30.261846 -30.261844 
 -30.261850 -30.261846 -30.261843 -30.261841 -30.261842 -30.261850 
 -30.261841 -30.261839 -30.261842 -30.261844 -30.261848 -30.261845 
 -30.261847 -30.261852 -30.246728 -30.246728 -30.246727 -30.246729 
 -30.246731 -30.246731 -30.246725 -30.246719 -30.246714 -30.246719 
 -30.246724 -30.246728 -30.246728 -30.246728 -30.246724 -30.246724 
 -30.246728 -30.227408 -30.227413 -30.227414 -30.227409 -30.227410 
 -30.227407 -30.227409 -30.227412 -30.227409 -30.227411 -30.227407 
 -30.227406 -30.227406 -30.227405 -30.227411 -30.227410 -30.227408 
 -30.204604 -30.204607 -30.204609 -30.204607 -30.204610 -30.204605 
 -30.204601 -30.204599 -30.204600 -30.204597 -30.204598 -30.204601 
 -30.204606 -30.204604 -30.204606 -30.204607 -30.204604 -30.179146 
 -30.179142 -30.179137 -30.179138 -30.179132 -30.179131 -30.179134 
 -30.179130 -30.179125 -30.179128 -30.179132 -30.179129 -30.179129 
 -30.179136 -30.179137 -30.179142 -30.179146 -30.151951 -30.151953 
 -30.151958 -30.151957 -30.151955 -30.151953 -30.151948 -30.151949 
 -30.151949 -30.151949 -30.151949 -30.151953 -30.151955 -30.151958 
 -30.151958 -30.151954 -30.151951 -30.124093 -30.124090 -30.124085 
 -30.124080 -30.124080 -30.124081 -30.124080 -30.124082 -30.124087 
 -30.124081 -30.124079 -30.124081 -30.124081 -30.124079 -30.124084 
 -30.124088 -30.124093 -30.096587 -30.096589 -30.096589 -30.096589 
 -30.096586 -30.096585 -30.096589 -30.096592 -30.096589 -30.096591 
 -30.096589 -30.096585 -30.096587 -30.096590 -30.096589 -30.096589 
 -30.096587 -30.070551 -30.070552 -30.070551 -30.070555 -30.070557 
 -30.070552 -30.070553 -30.070548 -30.070545 -30.070548 -30.070553 
 -30.070551 -30.070555 -30.070554 -30.070551 -30.070553 -30.070551 
 -30.046997 -30.046997 -30.046993 -30.046989 -30.046991 -30.046994 
 -30.046992 -30.046993 -30.046994 -30.046992 -30.046990 -30.046993 
 -30.046990 -30.046989 -30.046993 -30.046997 -30.046997 -30.026876 
 -30.026874 -30.026877 -30.026878 -30.026874 -30.026870 -30.026871 
 -30.026868 -30.026867 -30.026869 -30.026871 -30.026870 -30.026875 
 -30.026878 -30.026878 -30.026874 -30.026876 -30.011009 -30.011005 
 -30.011000 -30.010996 -30.010996 -30.010998 -30.010995 -30.010998 
 -30.010999 -30.010998 -30.010997 -30.010999 -30.010995 -30.010995 
 -30.011000 -30.011005 -30.011009 -30.006301 -30.006306 -30.006317 
 -30.006335 -30.006350 -30.006367 -30.006376 -30.006381 -30.006386 
 -30.006381 -30.006376 -30.006367 -30.006350 -30.006335 -30.006317 
 -30.006306 -30.006301 -30.007359 -30.007363 -30.007373 -30.007391 
 -30.007413 -30.007423 -30.007439 -30.007437 -30.007441 -30.007438 
 -30.007438 -30.007423 -30.007413 -30.007392 -30.007372 -30.007364 
 -30.007359 -30.007359 -30.007364 -30.007372 -30.007392 -30.007413 
 -30.007423 -30.007438 -30.007438 -30.007441 -30.007437 -30.007439 
 -30.007423 -30.007413 -30.007391 -30.007373 -30.007364 -30.007359 
 -30.005797 -30.005801 -30.005814 -30.005831 -30.005845 -30.005861 
 -30.005869 -30.005876 -30.005884 -30.005877 -30.005870 -30.005861 
 -30.005847 -30.005826 -30.005813 -30.005800 -30.005797 -30.011003 
 -30.011000 -30.010994 -30.010990 -30.010991 -30.010992 -30.010989 
 -30.010992 -30.010993 -30.010992 -30.010991 -30.010993 -30.010990 
 -30.010990 -30.010994 -30.010999 -30.011003 -30.024092 -30.024089 
 -30.024086 -30.024087 -30.024086 -30.024080 -30.024079 -30.024081 
 -30.024078 -30.024081 -30.024079 -30.024080 -30.024086 -30.024087 
 -30.024086 -30.024089 -30.024092 -30.041600 -30.041602 -30.041606 
 -30.041607 -30.041600 -30.041599 -30.041597 -30.041596 -30.041598 
 -30.041596 -30.041598 -30.041599 -30.041600 -30.041607 -30.041607 
 -30.041602 -30.041600 -30.062842 -30.062840 -30.062841 -30.062836 
 -30.062838 -30.062838 -30.062837 -30.062838 -30.062837 -30.062838 
 -30.062838 -30.062839 -30.062839 -30.062837 -30.062841 -30.062839 
 -30.062842 -30.086952 -30.086952 -30.086952 -30.086954 -30.086947 
 -30.086948 -30.086955 -30.086951 -30.086950 -30.086952 -30.086953 
 -30.086948 -30.086947 -30.086954 -30.086952 -30.086953 -30.086952 
 -30.112978 -30.112976 -30.112971 -30.112965 -30.112969 -30.112971 
 -30.112974 -30.112976 -30.112976 -30.112977 -30.112976 -30.112971 
 -30.112970 -30.112966 -30.112972 -30.112977 -30.112978 -30.139890 
 -30.139891 -30.139894 -30.139893 -30.139895 -30.139891 -30.139881 
 -30.139880 -30.139885 -30.139879 -30.139880 -30.139891 -30.139895 
 -30.139893 -30.139893 -30.139891 -30.139890 -30.166652 -30.166651 
 -30.166654 -30.166653 -30.166647 -30.166644 -30.166644 -30.166645 
 -30.166643 -30.166645 -30.166645 -30.166645 -30.166648 -30.166652 
 -30.166655 -30.166651 -30.166652 -30.192257 -30.192249 -30.192245 
 -30.192247 -30.192248 -30.192249 -30.192246 -30.192242 -30.192237 
 -30.192243 -30.192248 -30.192252 -30.192250 -30.192249 -30.192247 
 -30.192251 -30.192257 -30.215716 -30.215722 -30.215719 -30.215716 
 -30.215715 -30.215712 -30.215710 -30.215713 -30.215718 -30.215715 
 -30.215713 -30.215717 -30.215718 -30.215720 -30.215722 -30.215722 
 -30.215716 -30.236201 -30.236203 -30.236200 -30.236200 -30.236198 
 -30.236195 -30.236198 -30.236195 -30.236189 -30.236195 -30.236199 
 -30.236197 -30.236202 -30.236203 -30.236202 -30.236206 -30.236201 
 -30.252946 -30.252939 -30.252942 -30.252946 -30.252944 -30.252940 
 -30.252940 -30.252940 -30.252938 -30.252940 -30.252941 -30.252941 
 -30.252945 -30.252948 -30.252943 -30.252939 -30.252946 -30.265356 
 -30.265355 -30.265354 -30.265348 -30.265341 -30.265346 -30.265343 
 -30.265341 -30.265341 -30.265342 -30.265344 -30.265347 -30.265340 
 -30.265348 -30.265354 -30.265355 -30.265356 -30.272983 -30.272985 
 -30.272982 -30.272977 -30.272975 -30.272975 -30.272969 -30.272963 
 -30.272960 -30.272963 -30.272968 -30.272975 -30.272975 -30.272975 
 -30.272981 -30.272984 -30.272983 -30.275553 -30.275547 -30.275544 
 -30.275546 -30.275543 -30.275531 -30.275535 -30.275542 -30.275543 
 -30.275542 -30.275535 -30.275531 -30.275543 -30.275546 -30.275544 
 -30.275547 -30.275553 -30.272984 -30.272985 -30.272982 -30.272975 
 -30.272976 -30.272976 -30.272968 -30.272963 -30.272960 -30.272964 
 -30.272970 -30.272975 -30.272975 -30.272977 -30.272982 -30.272985 
 -30.272984 -30.265357 -30.265356 -30.265354 -30.265349 -30.265341 
 -30.265348 -30.265344 -30.265342 -30.265342 -30.265341 -30.265343 
 -30.265347 -30.265342 -30.265349 -30.265355 -30.265356 -30.265357 
 -30.252947 -30.252940 -30.252944 -30.252949 -30.252946 -30.252942 
 -30.252943 -30.252941 -30.252939 -30.252941 -30.252941 -30.252941 
 -30.252945 -30.252947 -30.252943 -30.252940 -30.252947 -30.236202 
 -30.236207 -30.236204 -30.236205 -30.236203 -30.236198 -30.236201 
 -30.236197 -30.236190 -30.236196 -30.236199 -30.236197 -30.236199 
 -30.236201 -30.236202 -30.236205 -30.236202 -30.215718 -30.215724 
 -30.215723 -30.215722 -30.215720 -30.215719 -30.215715 -30.215717 
 -30.215720 -30.215715 -30.215711 -30.215714 -30.215717 -30.215718 
 -30.215720 -30.215724 -30.215718 -30.192259 -30.192253 -30.192250 
 -30.192252 -30.192253 -30.192254 -30.192250 -30.192246 -30.192239 
 -30.192244 -30.192249 -30.192251 -30.192250 -30.192249 -30.192248 
 -30.192251 -30.192259 -30.166655 -30.166654 -30.166657 -30.166655 
 -30.166650 -30.166648 -30.166648 -30.166648 -30.166646 -30.166647 
 -30.166647 -30.166647 -30.166650 -30.166655 -30.166657 -30.166654 
 -30.166655 -30.139894 -30.139895 -30.139896 -30.139896 -30.139899 
 -30.139894 -30.139884 -30.139882 -30.139888 -30.139883 -30.139885 
 -30.139894 -30.139899 -30.139896 -30.139897 -30.139894 -30.139894 
 -30.112982 -30.112980 -30.112976 -30.112970 -30.112973 -30.112975 
 -30.112980 -30.112981 -30.112980 -30.112980 -30.112978 -30.112974 
 -30.112973 -30.112969 -30.112975 -30.112980 -30.112982 -30.086956 
 -30.086958 -30.086957 -30.086959 -30.086951 -30.086952 -30.086958 
 -30.086956 -30.086954 -30.086956 -30.086959 -30.086953 -30.086952 
 -30.086958 -30.086957 -30.086956 -30.086956 -30.062847 -30.062845 
 -30.062846 -30.062843 -30.062845 -30.062845 -30.062843 -30.062843 
 -30.062842 -30.062844 -30.062843 -30.062843 -30.062843 -30.062842 
 -30.062847 -30.062845 -30.062847 -30.041606 -30.041609 -30.041613 
 -30.041614 -30.041607 -30.041605 -30.041605 -30.041603 -30.041604 
 -30.041603 -30.041603 -30.041605 -30.041607 -30.041614 -30.041613 
 -30.041609 -30.041606 -30.024099 -30.024097 -30.024094 -30.024095 
 -30.024093 -30.024088 -30.024087 -30.024089 -30.024085 -30.024089 
 -30.024087 -30.024088 -30.024093 -30.024095 -30.024094 -30.024097 
 -30.024099 -30.011012 -30.011008 -30.011002 -30.010998 -30.010998 
 -30.011002 -30.011000 -30.011001 -30.011001 -30.011001 -30.010998 
 -30.011000 -30.010999 -30.010998 -30.011003 -30.011008 -30.011012 
 -30.005796 -30.005799 -30.005812 -30.005825 -30.005846 -30.005860 
 -30.005868 -30.005876 -30.005883 -30.005875 -30.005867 -30.005860 
 -30.005844 -30.005830 -30.005813 -30.005800 -30.005796 -30.006301 
 -30.006306 -30.006317 -30.006335 -30.006350 -30.006367 -30.006376 
 -30.006381 -30.006386 -30.006381 -30.006376 -30.006367 -30.006350 
 -30.006335 -30.006317 -30.006306 -30.006301 -30.005797 -30.005801 
 -30.005814 -30.005831 -30.005845 -30.005861 -30.005869 -30.005876 
 -30.005884 -30.005877 -30.005870 -30.005861 -30.005847 -30.005826 
 -30.005813 -30.005800 -30.005797 -30.016493 -30.016495 -30.016494 
 -30.016493 -30.016491 -30.016486 -30.016484 -30.016481 -30.016483 
 -30.016483 -30.016486 -30.016486 -30.016491 -30.016492 -30.016494 
 -30.016496 -30.016493 -30.026872 -30.026869 -30.026873 -30.026874 
 -30.026870 -30.026866 -30.026867 -30.026864 -30.026863 -30.026865 
 -30.026866 -30.026866 -30.026871 -30.026874 -30.026873 -30.026870 
 -30.026872 -30.041600 -30.041602 -30.041607 -30.041607 -30.041600 
 -30.041599 -30.041598 -30.041596 -30.041598 -30.041596 -30.041597 
 -30.041599 -30.041600 -30.041607 -30.041606 -30.041602 -30.041600 
 -30.060097 -30.060101 -30.060098 -30.060094 -30.060096 -30.060098 
 -30.060101 -30.060101 -30.060102 -30.060101 -30.060101 -30.060098 
 -30.060096 -30.060094 -30.060098 -30.060101 -30.060097 -30.081672 
 -30.081668 -30.081664 -30.081663 -30.081666 -30.081666 -30.081665 
 -30.081665 -30.081664 -30.081665 -30.081664 -30.081666 -30.081666 
 -30.081662 -30.081665 -30.081669 -30.081672 -30.105451 -30.105452 
 -30.105453 -30.105452 -30.105450 -30.105449 -30.105449 -30.105449 
 -30.105450 -30.105450 -30.105449 -30.105448 -30.105452 -30.105452 
 -30.105452 -30.105452 -30.105451 -30.130549 -30.130542 -30.130541 
 -30.130542 -30.130547 -30.130545 -30.130539 -30.130535 -30.130537 
 -30.130533 -30.130540 -30.130544 -30.130545 -30.130542 -30.130541 
 -30.130542 -30.130549 -30.155970 -30.155970 -30.155970 -30.155973 
 -30.155968 -30.155967 -30.155967 -30.155964 -30.155965 -30.155966 
 -30.155966 -30.155966 -30.155967 -30.155973 -30.155971 -30.155971 
 -30.155970 -30.180772 -30.180770 -30.180766 -30.180766 -30.180760 
 -30.180765 -30.180768 -30.180766 -30.180762 -30.180767 -30.180769 
 -30.180767 -30.180764 -30.180769 -30.180767 -30.180771 -30.180772 
 -30.204008 -30.204008 -30.204007 -30.204006 -30.204008 -30.204003 
 -30.203997 -30.203998 -30.203998 -30.203999 -30.204000 -30.204007 
 -30.204012 -30.204009 -30.204011 -30.204009 -30.204008 -30.224818 
 -30.224820 -30.224822 -30.224814 -30.224813 -30.224812 -30.224814 
 -30.224819 -30.224819 -30.224820 -30.224816 -30.224814 -30.224818 
 -30.224818 -30.224823 -30.224821 -30.224818 -30.242454 -30.242454 
 -30.242451 -30.242456 -30.242453 -30.242451 -30.242448 -30.242444 
 -30.242440 -30.242444 -30.242449 -30.242453 -30.242455 -30.242459 
 -30.242454 -30.242455 -30.242454 -30.256260 -30.256259 -30.256258 
 -30.256257 -30.256253 -30.256250 -30.256246 -30.256248 -30.256255 
 -30.256249 -30.256247 -30.256250 -30.256252 -30.256256 -30.256258 
 -30.256260 -30.256260 -30.265753 -30.265752 -30.265755 -30.265745 
 -30.265742 -30.265747 -30.265743 -30.265734 -30.265736 -30.265736 
 -30.265744 -30.265747 -30.265742 -30.265742 -30.265753 -30.265750 
 -30.265753 -30.270583 -30.270581 -30.270578 -30.270577 -30.270575 
 -30.270565 -30.270565 -30.270568 -30.270564 -30.270568 -30.270566 
 -30.270566 -30.270575 -30.270575 -30.270576 -30.270581 -30.270583 
 -30.270584 -30.270582 -30.270576 -30.270575 -30.270575 -30.270566 
 -30.270566 -30.270568 -30.270565 -30.270569 -30.270565 -30.270565 
 -30.270576 -30.270578 -30.270578 -30.270581 -30.270584 -30.265754 
 -30.265751 -30.265754 -30.265743 -30.265743 -30.265748 -30.265744 
 -30.265737 -30.265737 -30.265735 -30.265743 -30.265748 -30.265743 
 -30.265746 -30.265755 -30.265752 -30.265754 -30.256262 -30.256261 
 -30.256259 -30.256257 -30.256253 -30.256251 -30.256249 -30.256251 
 -30.256256 -30.256250 -30.256248 -30.256251 -30.256254 -30.256258 
 -30.256259 -30.256261 -30.256262 -30.242456 -30.242457 -30.242456 
 -30.242461 -30.242457 -30.242455 -30.242451 -30.242446 -30.242442 
 -30.242446 -30.242450 -30.242453 -30.242455 -30.242458 -30.242453 
 -30.242456 -30.242456 -30.224821 -30.224824 -30.224826 -30.224821 
 -30.224821 -30.224817 -30.224818 -30.224822 -30.224822 -30.224822 
 -30.224816 -30.224815 -30.224816 -30.224817 -30.224824 -30.224823 
 -30.224821 -30.204011 -30.204012 -30.204014 -30.204012 -30.204016 
 -30.204010 -30.204004 -30.204002 -30.204002 -30.204001 -30.204000 
 -30.204006 -30.204012 -30.204009 -30.204010 -30.204011 -30.204011 
 -30.180776 -30.180775 -30.180770 -30.180773 -30.180767 -30.180771 
 -30.180773 -30.180771 -30.180765 -30.180769 -30.180772 -30.180769 
 -30.180764 -30.180770 -30.180769 -30.180774 -30.180776 -30.155974 
 -30.155976 -30.155975 -30.155978 -30.155971 -30.155970 -30.155971 
 -30.155970 -30.155970 -30.155968 -30.155971 -30.155971 -30.155973 
 -30.155978 -30.155975 -30.155975 -30.155974 -30.130555 -30.130547 
 -30.130546 -30.130547 -30.130550 -30.130549 -30.130545 -30.130539 
 -30.130543 -30.130540 -30.130545 -30.130551 -30.130552 -30.130547 
 -30.130546 -30.130547 -30.130555 -30.105457 -30.105458 -30.105458 
 -30.105458 -30.105458 -30.105454 -30.105456 -30.105456 -30.105456 
 -30.105455 -30.105455 -30.105455 -30.105457 -30.105458 -30.105459 
 -30.105458 -30.105457 -30.081679 -30.081676 -30.081672 -30.081669 
 -30.081673 -30.081673 -30.081671 -30.081672 -30.081671 -30.081672 
 -30.081672 -30.081673 -30.081673 -30.081670 -30.081671 -30.081675 
 -30.081679 -30.060105 -30.060109 -30.060105 -30.060101 -30.060104 
 -30.060106 -30.060108 -30.060109 -30.060110 -30.060109 -30.060108 
 -30.060106 -30.060104 -30.060101 -30.060105 -30.060109 -30.060105 
 -30.041608 -30.041611 -30.041615 -30.041616 -30.041609 -30.041607 
 -30.041605 -30.041605 -30.041606 -30.041605 -30.041607 -30.041607 
 -30.041609 -30.041616 -30.041615 -30.041611 -30.041608 -30.026880 
 -30.026878 -30.026882 -30.026882 -30.026879 -30.026874 -30.026875 
 -30.026873 -30.026872 -30.026872 -30.026875 -30.026875 -30.026879 
 -30.026883 -30.026882 -30.026878 -30.026880 -30.016500 -30.016503 
 -30.016501 -30.016499 -30.016498 -30.016493 -30.016493 -30.016490 
 -30.016490 -30.016488 -30.016491 -30.016493 -30.016498 -30.016500 
 -30.016501 -30.016502 -30.016500 -30.011012 -30.011008 -30.011002 
 -30.010998 -30.010998 -30.011002 -30.011000 -30.011001 -30.011001 
 -30.011001 -30.010998 -30.011000 -30.010999 -30.010998 -30.011003 
 -30.011008 -30.011012 -30.011009 -30.011005 -30.011000 -30.010996 
 -30.010996 -30.010998 -30.010995 -30.010998 -30.010999 -30.010998 
 -30.010997 -30.010999 -30.010995 -30.010995 -30.011000 -30.011005 
 -30.011009 -30.016493 -30.016495 -30.016494 -30.016493 -30.016491 
 -30.016486 -30.016484 -30.016481 -30.016483 -30.016483 -30.016486 
 -30.016486 -30.016491 -30.016492 -30.016494 -30.016496 -30.016493 
 -30.034768 -30.034772 -30.034773 -30.034771 -30.034766 -30.034767 
 -30.034764 -30.034770 -30.034771 -30.034770 -30.034764 -30.034767 
 -30.034766 -30.034771 -30.034773 -30.034772 -30.034768 -30.046994 
 -30.046994 -30.046990 -30.046986 -30.046987 -30.046991 -30.046989 
 -30.046989 -30.046990 -30.046989 -30.046987 -30.046990 -30.046987 
 -30.046986 -30.046990 -30.046994 -30.046994 -30.062842 -30.062839 
 -30.062841 -30.062837 -30.062839 -30.062839 -30.062838 -30.062838 
 -30.062837 -30.062838 -30.062837 -30.062838 -30.062838 -30.062836 
 -30.062841 -30.062840 -30.062842 -30.081672 -30.081669 -30.081665 
 -30.081662 -30.081666 -30.081666 -30.081664 -30.081665 -30.081664 
 -30.081665 -30.081665 -30.081666 -30.081666 -30.081663 -30.081664 
 -30.081668 -30.081672 -30.102758 -30.102758 -30.102762 -30.102767 
 -30.102760 -30.102755 -30.102758 -30.102754 -30.102754 -30.102754 
 -30.102758 -30.102755 -30.102760 -30.102767 -30.102762 -30.102758 
 -30.102758 -30.125345 -30.125344 -30.125343 -30.125345 -30.125344 
 -30.125345 -30.125347 -30.125349 -30.125346 -30.125348 -30.125347 
 -30.125344 -30.125343 -30.125343 -30.125343 -30.125344 -30.125345 
 -30.148599 -30.148600 -30.148600 -30.148598 -30.148599 -30.148598 
 -30.148595 -30.148593 -30.148596 -30.148593 -30.148595 -30.148598 
 -30.148599 -30.148598 -30.148599 -30.148600 -30.148599 -30.171647 
 -30.171647 -30.171649 -30.171648 -30.171643 -30.171642 -30.171647 
 -30.171648 -30.171649 -30.171649 -30.171647 -30.171644 -30.171644 
 -30.171650 -30.171651 -30.171648 -30.171647 -30.193668 -30.193665 
 -30.193663 -30.193662 -30.193660 -30.193657 -30.193652 -30.193649 
 -30.193650 -30.193651 -30.193654 -30.193660 -30.193664 -30.193664 
 -30.193665 -30.193667 -30.193668 -30.213820 -30.213823 -30.213817 
 -30.213815 -30.213818 -30.213815 -30.213812 -30.213817 -30.213819 
 -30.213818 -30.213815 -30.213817 -30.213820 -30.213819 -30.213819 
 -30.213823 -30.213820 -30.231403 -30.231404 -30.231405 -30.231400 
 -30.231396 -30.231396 -30.231403 -30.231401 -30.231396 -30.231400 
 -30.231404 -30.231399 -30.231399 -30.231402 -30.231406 -30.231407 
 -30.231403 -30.245786 -30.245779 -30.245776 -30.245777 -30.245776 
 -30.245771 -30.245768 -30.245764 -30.245763 -30.245764 -30.245769 
 -30.245772 -30.245776 -30.245778 -30.245776 -30.245780 -30.245786 
 -30.256419 -30.256421 -30.256421 -30.256418 -30.256414 -30.256417 
 -30.256411 -30.256412 -30.256417 -30.256414 -30.256412 -30.256417 
 -30.256414 -30.256418 -30.256420 -30.256419 -30.256419 -30.262968 
 -30.262970 -30.262969 -30.262966 -30.262964 -30.262960 -30.262957 
 -30.262953 -30.262952 -30.262954 -30.262959 -30.262961 -30.262963 
 -30.262965 -30.262968 -30.262970 -30.262968 -30.265184 -30.265179 
 -30.265173 -30.265170 -30.265169 -30.265159 -30.265159 -30.265161 
 -30.265162 -30.265161 -30.265159 -30.265159 -30.265169 -30.265170 
 -30.265173 -30.265179 -30.265184 -30.262969 -30.262971 -30.262969 
 -30.262966 -30.262964 -30.262962 -30.262959 -30.262955 -30.262952 
 -30.262954 -30.262957 -30.262961 -30.262965 -30.262967 -30.262970 
 -30.262971 -30.262969 -30.256421 -30.256420 -30.256422 -30.256420 
 -30.256415 -30.256419 -30.256414 -30.256415 -30.256418 -30.256414 
 -30.256412 -30.256418 -30.256416 -30.256420 -30.256423 -30.256422 
 -30.256421 -30.245788 -30.245782 -30.245778 -30.245780 -30.245779 
 -30.245774 -30.245771 -30.245766 -30.245765 -30.245766 -30.245770 
 -30.245773 -30.245778 -30.245780 -30.245778 -30.245781 -30.245788 
 -30.231406 -30.231410 -30.231409 -30.231405 -30.231402 -30.231402 
 -30.231407 -30.231404 -30.231399 -30.231404 -30.231406 -30.231400 
 -30.231400 -30.231403 -30.231408 -30.231407 -30.231406 -30.213824 
 -30.213827 -30.213823 -30.213823 -30.213824 -30.213821 -30.213819 
 -30.213821 -30.213823 -30.213821 -30.213816 -30.213819 -30.213822 
 -30.213819 -30.213821 -30.213827 -30.213824 -30.193673 -30.193672 
 -30.193669 -30.193669 -30.193668 -30.193665 -30.193659 -30.193655 
 -30.193654 -30.193654 -30.193657 -30.193662 -30.193665 -30.193667 
 -30.193668 -30.193670 -30.193673 -30.171653 -30.171654 -30.171657 
 -30.171655 -30.171650 -30.171649 -30.171653 -30.171654 -30.171655 